/*--------------------------------*- C++ -*----------------------------------*\
  =========                 |
  \\      /  F ield         | OpenFOAM: The Open Source CFD Toolbox
   \\    /   O peration     | Website:  https://openfoam.org
    \\  /    A nd           | Version:  7
     \\/     M anipulation  |
\*---------------------------------------------------------------------------*/
FoamFile
{
    version     2.0;
    format      ascii;
    class       volScalarField;
    location    "0.1";
    object      p;
}
// * * * * * * * * * * * * * * * * * * * * * * * * * * * * * * * * * * * * * //

dimensions      [0 2 -2 0 0 0 0];

internalField   nonuniform List<scalar> 
125
(
0.0339276
0.0333053
0.0334929
0.0334929
0.0337367
0.0418905
0.0337367
0.0316737
0.032755
0.0316737
0.030584
0.0431806
0.0335892
0.0158286
0.0431806
0.030584
0.0289808
0.0315158
0.0315158
0.0289808
0.02863
0.0310024
0.0308213
0.0244984
0.0434097
0.0308213
0.0448273
0.0244984
0.0310024
0.02863
0.0293244
0.0235606
0.0369192
0.0235606
0.0293244
0.0284665
0.0302962
0.0243532
0.0208041
0.0317083
0.0332176
0.0606479
0.0307212
0.0317083
0.0243532
0.0606479
0.0208041
0.0302962
0.0284665
0.0245856
0.036949
0.036949
0.0245856
0.0294302
0.0243081
0.0294802
0.0294085
0.0308351
0.0172507
0.0243394
0.0308397
0.0308351
0.0726173
0.0243394
0.0294085
0.0243081
0.0172507
0.0294802
0.0294302
0.0428483
0.0182849
0.0428483
0.0291668
0.0286076
0.0343885
0.0400917
0.0297008
0.0302583
-0.00729719
0.02427
0.025163
0.0302583
0.0343885
0.02427
0.0297008
0.0286076
0.0400917
0.0291668
0.0297968
0.0297968
0.0327028
0.0291829
0.0318104
-0.00113866
0.040369
0.0276632
0.0220388
-0.00113866
0.0234179
0.0276632
0.0318104
0.040369
0.0291829
0.0327028
0.0436774
0.032801
0.028777
0.0243262
0.00657271
0.0294571
0.0233091
0.0243262
0.0294571
0.028777
0.032801
0.0291868
0.0237982
0.0277807
0.0269207
0.0237982
0.0291868
0.0260943
0.0247897
0.0260943
0.0256658
)
;

boundaryField
{
    wall
    {
        type            zeroGradient;
    }
    inlet
    {
        type            zeroGradient;
    }
    outlet
    {
        type            fixedValue;
        value           uniform 0;
    }
}


// ************************************************************************* //
