/*--------------------------------*- C++ -*----------------------------------*\
  =========                 |
  \\      /  F ield         | OpenFOAM: The Open Source CFD Toolbox
   \\    /   O peration     | Website:  https://openfoam.org
    \\  /    A nd           | Version:  7
     \\/     M anipulation  |
\*---------------------------------------------------------------------------*/
FoamFile
{
    version     2.0;
    format      ascii;
    class       surfaceScalarField;
    location    "0.1";
    object      phi;
}
// * * * * * * * * * * * * * * * * * * * * * * * * * * * * * * * * * * * * * //

dimensions      [0 3 -1 0 0 0 0];

internalField   nonuniform List<scalar> 
300
(
-0.00141862
0.000709311
0.000709311
0.000813542
-0.0030457
0.000813542
-0.00132828
0.00123627
0.000801325
-0.00132828
0.000801325
0.00123627
0.0014451
-0.00281879
0.00085895
0.00112934
-0.00530438
0.00112934
0.00085895
-0.00281879
0.0014451
-0.00101645
0.00129947
0.00095325
-0.00128292
0.00144279
0.00144279
-0.00101645
0.00095325
0.00129947
0.00136527
-0.00183128
0.000894661
0.00217289
-0.00495683
0.00109449
0.00154324
-0.0026515
0.00154324
0.00152408
-0.00835253
0.00152408
0.00109449
-0.00495683
0.00217289
0.000894661
-0.00183128
0.00136527
-0.000965856
0.000724981
0.00154034
-0.00106658
0.00175197
0.00171064
-0.00106658
0.00171064
0.00175197
-0.000965856
0.00154034
0.000724981
0.000758358
-0.00158907
0.00123012
0.00166562
-0.00222643
0.000902416
0.00162153
-0.00184419
0.00159398
0.00299342
-0.00785985
0.00143367
0.00209851
-0.00465955
0.00209851
0.00159398
-0.00184419
0.00162153
0.00382373
0.00382373
0.00143367
-0.00785985
0.00299342
0.000902416
-0.00222643
0.00166562
0.00123012
-0.00158907
0.000758358
-0.000906636
0.00163162
-0.00123764
0.000895234
0.00363472
-0.00105723
0.00223926
0.00223926
-0.00123764
0.00363472
0.000895234
-0.000906636
0.00163162
-0.00142691
0.00127863
0.000898687
-0.0017795
0.00095736
0.000846878
-0.00187273
0.00263987
0.00212249
-0.00232996
0.000974456
0.00171302
-0.00216753
0.00161125
0.00192018
-0.00170963
0.00192018
0.00838673
0.00357716
0.00281075
-0.0074137
0.00281075
0.00161125
-0.00216753
0.00171302
0.00263987
-0.00187273
0.000846878
0.00357716
0.00838673
0.000974456
-0.00232996
0.00212249
0.00095736
-0.0017795
0.000898687
0.00127863
-0.00142691
-0.00121675
0.0037436
-0.00141985
0.00112891
0.00616492
-0.00141985
0.00616492
0.00112891
-0.00121675
0.0037436
-0.00147546
0.000947229
-0.00177266
0.00268143
0.00115069
-0.00169211
0.000884421
0.000912554
-0.0018703
0.00175539
0.000972963
-0.0021815
0.00434873
0.00468437
0.0013724
0.00203609
-0.00219737
0.00177896
0.00163507
-0.00175728
0.00163507
0.00434873
-0.0021815
0.000972963
0.0078703
0.0078703
0.00177896
-0.00219737
0.00203609
0.00175539
-0.0018703
0.000912554
0.00268143
-0.00177266
0.0013724
0.00468437
0.000884421
-0.00169211
0.00115069
0.000947229
-0.00147546
-0.00143364
0.00630615
-0.0103378
0.00277336
0.00277336
-0.00143364
0.00630615
-0.00112725
0.000802479
-0.0016368
0.00172391
-0.00218679
0.00440754
0.001945
0.00104725
0.00109926
-0.0016435
0.00159446
0.000882442
-0.00191884
0.00224537
0.00184259
-0.00532548
0.00184259
0.00438836
0.00265698
0.00159025
-0.00137987
0.00159025
0.00224537
-0.00191884
0.000882442
0.00440754
-0.00218679
0.00265698
0.00438836
0.00159446
-0.0016435
0.00109926
0.00172391
-0.0016368
0.00104725
0.001945
0.000802479
-0.00112725
-0.00976649
0.00284209
-0.00976649
0.00284209
0.000817757
-0.00115728
0.00142222
-0.00187308
0.00229264
-0.00538336
0.001867
0.0017889
0.00200321
0.000886709
-0.00126651
0.00164567
0.00110789
-0.00305052
0.00110789
0.001867
-0.00538336
0.00196704
0.00196704
0.00164567
-0.00126651
0.000886709
0.00229264
-0.00187308
0.00200321
0.0017889
0.00142222
-0.00115728
0.000817757
-0.00918711
0.00144938
-0.0011368
0.00157265
-0.00310697
0.00112414
-0.0054531
0.00106854
0.0016352
0.000877437
-0.00151405
0.000877437
0.00112414
-0.00310697
0.0016352
0.00106854
0.00157265
-0.0011368
0.00144938
0.00138112
-0.00149256
0.000835679
-0.00320482
0.000878171
0.000878171
0.000835679
-0.00149256
0.00138112
0.000766731
-0.00153346
0.000766731
)
;

boundaryField
{
    wall
    {
        type            calculated;
        value           uniform 0;
    }
    inlet
    {
        type            calculated;
        value           nonuniform List<scalar> 4(-0.016 -0.016 -0.016 -0.016);
    }
    outlet
    {
        type            calculated;
        value           nonuniform List<scalar> 4(0.0160039 0.0171209 0.0148713 0.0160039);
    }
}


// ************************************************************************* //
