/*--------------------------------*- C++ -*----------------------------------*\
  =========                 |
  \\      /  F ield         | OpenFOAM: The Open Source CFD Toolbox
   \\    /   O peration     | Website:  https://openfoam.org
    \\  /    A nd           | Version:  7
     \\/     M anipulation  |
\*---------------------------------------------------------------------------*/
FoamFile
{
    version     2.0;
    format      ascii;
    class       volVectorField;
    location    "0.1";
    object      U;
}
// * * * * * * * * * * * * * * * * * * * * * * * * * * * * * * * * * * * * * //

dimensions      [0 1 -1 0 0 0 0];

internalField   nonuniform List<vector> 
125
(
(-0.00230287 0.00434819 0.00230287)
(-0.00262447 0.0141055 0.00262447)
(-0.00638556 0.00410876 0.00257494)
(-0.00257494 0.00410876 0.00638556)
(-0.00759978 0.0131115 0.00276081)
(-0.00349672 0.0210236 0.00349672)
(-0.00276081 0.0131115 0.00759978)
(-0.0085731 0.003266 0.00305327)
(-0.00718406 0.00400549 0.00718406)
(-0.00305327 0.003266 0.0085731)
(-0.00951119 0.00915648 0.00287115)
(-0.011589 0.0196109 0.00341612)
(-0.00790377 0.0124605 0.00790377)
(-0.00432263 0.0520341 0.00432263)
(-0.00341612 0.0196109 0.011589)
(-0.00287115 0.00915648 0.00951119)
(-0.00681705 0.00327123 0.00497889)
(-0.0110789 0.00352918 0.00828731)
(-0.00828731 0.00352918 0.0110789)
(-0.00497889 0.00327123 0.00681705)
(-0.00697317 0.00841428 0.0039025)
(-0.0133693 0.0125855 0.00289409)
(-0.0107651 0.00947259 0.00794353)
(-0.0163687 0.048588 0.0041171)
(-0.0110751 0.0185143 0.0110751)
(-0.00794353 0.00947259 0.0107651)
(-0.00725095 0.0435047 0.00725095)
(-0.0041171 0.048588 0.0163687)
(-0.00289409 0.0125855 0.0133693)
(-0.0039025 0.00841428 0.00697317)
(-0.00232707 0.00315162 0.00529652)
(-0.00920282 0.00444734 0.0126677)
(-0.0141789 0.00376243 0.0141789)
(-0.0126677 0.00444734 0.00920282)
(-0.00529652 0.00315162 0.00232707)
(-0.00243609 0.00781379 0.00406772)
(-0.00814438 0.0107725 0.00304928)
(-0.00830198 0.0105086 0.0105762)
(-0.0183055 0.0169997 0.00308805)
(-0.0131585 0.0125382 0.0083193)
(-0.0123022 0.00935463 0.0123022)
(-0.0457264 0.0409087 0.00676325)
(-0.0152775 0.0455318 0.0152775)
(-0.0083193 0.0125382 0.0131585)
(-0.0105762 0.0105086 0.00830198)
(-0.00676325 0.0409087 0.0457264)
(-0.00308805 0.0169997 0.0183055)
(-0.00304928 0.0107725 0.00814438)
(-0.00406772 0.00781379 0.00243609)
(-0.0027372 0.00448363 0.0132914)
(-0.0120505 0.00566656 0.0369463)
(-0.0369463 0.00566656 0.0120505)
(-0.0132914 0.00448363 0.0027372)
(-0.00285947 0.00943417 0.00301664)
(-0.0026801 0.0102559 0.0108717)
(-0.0100057 0.0124439 0.00283677)
(-0.00840511 0.0119733 0.00861)
(-0.0101172 0.0127478 0.0259394)
(-0.0489405 0.0104228 0.00396614)
(-0.0172684 0.0161028 0.0095105)
(-0.0110672 0.0111914 0.0110672)
(-0.0259394 0.0127478 0.0101172)
(-0.0428163 0.0385526 0.0428163)
(-0.0095105 0.0161028 0.0172684)
(-0.00861 0.0119733 0.00840511)
(-0.0108717 0.0102559 0.0026801)
(-0.00396614 0.0104228 0.0489405)
(-0.00283677 0.0124439 0.0100057)
(-0.00301664 0.00943417 0.00285947)
(-0.00316459 0.00585598 0.0379139)
(-0.0337276 0.106618 0.0337276)
(-0.0379139 0.00585598 0.00316459)
(-0.00365708 0.00892483 0.0025889)
(-0.00289933 0.0110298 0.00840805)
(-0.00290319 0.0129818 0.0263188)
(-0.0159341 0.006822 0.00326875)
(-0.00967407 0.0123305 0.00821599)
(-0.00843911 0.0132706 0.0141158)
(-0.0225176 0.033737 0.0225176)
(-0.0458316 0.00961223 0.0145126)
(-0.0115633 0.0109323 0.0115633)
(-0.0141158 0.0132706 0.00843911)
(-0.0263188 0.0129818 0.00290319)
(-0.0145126 0.00961223 0.0458316)
(-0.00821599 0.0123305 0.00967407)
(-0.00840805 0.0110298 0.00289933)
(-0.00326875 0.006822 0.0159341)
(-0.0025889 0.00892483 0.00365708)
(-0.00425318 0.0994601 0.034544)
(-0.034544 0.0994601 0.00425318)
(-0.00620341 0.00415359 0.002638)
(-0.0034879 0.00937754 0.00726007)
(-0.00279775 0.0131654 0.0142619)
(-0.00335017 0.0343801 0.0228256)
(-0.0148536 0.00642355 0.0105939)
(-0.00798304 0.0104929 0.0110205)
(-0.0117466 0.0268612 0.0117466)
(-0.0228256 0.0343801 0.00335017)
(-0.0164702 0.00533852 0.0164702)
(-0.0110205 0.0104929 0.00798304)
(-0.0142619 0.0131654 0.00279775)
(-0.0105939 0.00642355 0.0148536)
(-0.00726007 0.00937754 0.0034879)
(-0.002638 0.00415359 0.00620341)
(-0.00433626 0.0921698 0.00433626)
(-0.00567725 0.00411935 0.00761484)
(-0.00283642 0.00973708 0.010202)
(-0.00321021 0.0271152 0.0120537)
(-0.00339431 0.035084 0.00339431)
(-0.00939249 0.00439867 0.0125485)
(-0.00842788 0.0137514 0.00842788)
(-0.0120537 0.0271152 0.00321021)
(-0.0125485 0.00439867 0.00939249)
(-0.010202 0.00973708 0.00283642)
(-0.00761484 0.00411935 0.00567725)
(-0.00338894 0.00375778 0.00955936)
(-0.00278739 0.0139652 0.00818126)
(-0.00320207 0.0275327 0.00320207)
(-0.00802486 0.004749 0.00802486)
(-0.00818126 0.0139652 0.00278739)
(-0.00955936 0.00375778 0.00338894)
(-0.00279573 0.00465252 0.0070478)
(-0.00265241 0.0144959 0.00265241)
(-0.0070478 0.00465252 0.00279573)
(-0.00246475 0.00475384 0.00246475)
)
;

boundaryField
{
    wall
    {
        type            noSlip;
    }
    inlet
    {
        type            fixedValue;
        value           uniform (0 0.1 0);
    }
    outlet
    {
        type            pressureInletOutletVelocity;
        value           nonuniform List<vector> 4((-0.00425318 0.0994601 0.034544) (-0.0337276 0.106618 0.0337276) (-0.00433626 0.0921698 0.00433626) (-0.034544 0.0994601 0.00425318));
    }
}


// ************************************************************************* //
