/*--------------------------------*- C++ -*----------------------------------*\
  =========                 |
  \\      /  F ield         | OpenFOAM: The Open Source CFD Toolbox
   \\    /   O peration     | Website:  https://openfoam.org
    \\  /    A nd           | Version:  7
     \\/     M anipulation  |
\*---------------------------------------------------------------------------*/
FoamFile
{
    version     2.0;
    format      ascii;
    class       volScalarField;
    location    "0.3";
    object      p;
}
// * * * * * * * * * * * * * * * * * * * * * * * * * * * * * * * * * * * * * //

dimensions      [0 2 -2 0 0 0 0];

internalField   nonuniform List<scalar> 
125
(
0.0236685
0.0212034
0.0234983
0.0234983
0.0217551
0.0266795
0.0217551
0.0226805
0.022765
0.0226805
0.0212449
0.0277081
0.0216322
0.0216072
0.0277081
0.0212449
0.0219472
0.0220488
0.0220488
0.0219472
0.0213466
0.0225425
0.0209069
0.0236818
0.0282329
0.0209069
0.0325016
0.0236818
0.0225425
0.0213466
0.0222982
0.0188448
0.0242271
0.0188448
0.0222982
0.0215181
0.0236998
0.0182344
0.0189861
0.0229839
0.0222989
0.0334763
0.0253076
0.0229839
0.0182344
0.0334763
0.0189861
0.0236998
0.0215181
0.0195701
0.0229912
0.0229912
0.0195701
0.0225158
0.0184892
0.0223064
0.0228554
0.020772
0.0161159
0.0201672
0.0227475
0.020772
0.0344931
0.0201672
0.0228554
0.0184892
0.0161159
0.0223064
0.0225158
0.02454
0.0135383
0.02454
0.0211118
0.0218473
0.0218128
0.0252481
0.0220423
0.0230465
0.00791685
0.0182235
0.0201421
0.0230465
0.0218128
0.0182235
0.0220423
0.0218473
0.0252481
0.0211118
0.0166309
0.0166309
0.0213299
0.0209845
0.0235367
0.00908453
0.0257738
0.0208831
0.0214849
0.00908453
0.018683
0.0208831
0.0235367
0.0257738
0.0209845
0.0213299
0.0201617
0.0217539
0.0211736
0.022556
0.0104879
0.0217333
0.0183204
0.022556
0.0217333
0.0211736
0.0217539
0.0212471
0.0185075
0.0241481
0.0215018
0.0185075
0.0212471
0.0209479
0.0191675
0.0209479
0.0210721
)
;

boundaryField
{
    wall
    {
        type            zeroGradient;
    }
    inlet
    {
        type            zeroGradient;
    }
    outlet
    {
        type            fixedValue;
        value           uniform 0;
    }
}


// ************************************************************************* //
