/*--------------------------------*- C++ -*----------------------------------*\
  =========                 |
  \\      /  F ield         | OpenFOAM: The Open Source CFD Toolbox
   \\    /   O peration     | Website:  https://openfoam.org
    \\  /    A nd           | Version:  7
     \\/     M anipulation  |
\*---------------------------------------------------------------------------*/
FoamFile
{
    version     2.0;
    format      ascii;
    class       surfaceScalarField;
    location    "0.3";
    object      phi;
}
// * * * * * * * * * * * * * * * * * * * * * * * * * * * * * * * * * * * * * //

dimensions      [0 3 -1 0 0 0 0];

internalField   nonuniform List<scalar> 
300
(
-0.00137321
0.000686604
0.000686604
0.000764964
-0.00290314
0.000764964
-0.00136439
0.00122591
0.000825086
-0.00136439
0.000825086
0.00122591
0.00140386
-0.00286832
0.000865043
0.00119796
-0.00529906
0.00119796
0.000865043
-0.00286832
0.00140386
-0.000914644
0.00125343
0.000887115
-0.00138232
0.00151625
0.00151625
-0.000914644
0.000887115
0.00125343
0.00132763
-0.0017068
0.000868377
0.00231688
-0.00520394
0.0012167
0.00161124
-0.00287471
0.00161124
0.00150495
-0.00830896
0.00150495
0.0012167
-0.00520394
0.00231688
0.000868377
-0.0017068
0.00132763
-0.000910933
0.000675493
0.00148887
-0.00101701
0.00183828
0.0015821
-0.00101701
0.0015821
0.00183828
-0.000910933
0.00148887
0.000675493
0.000730632
-0.00162353
0.0013096
0.00173704
-0.00199662
0.000869666
0.00176767
-0.00183824
0.00153317
0.0029217
-0.00812167
0.00150098
0.00235106
-0.00514343
0.00235106
0.00153317
-0.00183824
0.00176767
0.00384552
0.00384552
0.00150098
-0.00812167
0.0029217
0.000869666
-0.00199662
0.00173704
0.0013096
-0.00162353
0.000730632
-0.000801594
0.00147709
-0.0012397
0.000936025
0.00363082
-0.00091364
0.00203892
0.00203892
-0.0012397
0.00363082
0.000936025
-0.000801594
0.00147709
-0.00135901
0.00128805
0.000936917
-0.00181851
0.0009951
0.000910355
-0.00208786
0.00301507
0.00203602
-0.00200451
0.00089357
0.00186005
-0.00207762
0.00160005
0.00187138
-0.00159006
0.00187138
0.00796696
0.00375689
0.00291327
-0.007968
0.00291327
0.00160005
-0.00207762
0.00186005
0.00301507
-0.00208786
0.000910355
0.00375689
0.00796696
0.00089357
-0.00200451
0.00203602
0.0009951
-0.00181851
0.000936917
0.00128805
-0.00135901
-0.00114021
0.00355333
-0.00132147
0.00103564
0.00595557
-0.00132147
0.00595557
0.00103564
-0.00114021
0.00355333
-0.00134046
0.000918366
-0.00187068
0.00292887
0.0010774
-0.00176032
0.000900434
0.000993727
-0.00204255
0.00181611
0.000960676
-0.00213362
0.00473793
0.00468001
0.00128244
0.00209122
-0.00202547
0.00166347
0.00157769
-0.00154534
0.00157769
0.00473793
-0.00213362
0.000960676
0.00777289
0.00777289
0.00166347
-0.00202547
0.00209122
0.00181611
-0.00204255
0.000993727
0.00292887
-0.00187068
0.00128244
0.00468001
0.000900434
-0.00176032
0.0010774
0.000918366
-0.00134046
-0.00125987
0.00584884
-0.0105714
0.00285909
0.00285909
-0.00125987
0.00584884
-0.00103906
0.00077601
-0.00161924
0.00166065
-0.00202641
0.00465608
0.00180126
0.00111842
0.00109017
-0.00181173
0.00167068
0.000842949
-0.00179895
0.00221618
0.0022047
-0.00550498
0.0022047
0.0046186
0.00241126
0.00148637
-0.00119114
0.00148637
0.00221618
-0.00179895
0.000842949
0.00465608
-0.00202641
0.00241126
0.0046186
0.00167068
-0.00181173
0.00109017
0.00166065
-0.00161924
0.00111842
0.00180126
0.00077601
-0.00103906
-0.0100924
0.00281089
-0.0100924
0.00281089
0.000762196
-0.00113584
0.00138278
-0.00164516
0.00212235
-0.00539587
0.00216421
0.00177459
0.0021507
0.000837917
-0.00124218
0.00176236
0.00113392
-0.00334046
0.00113392
0.00216421
-0.00539587
0.00181569
0.00181569
0.00176236
-0.00124218
0.000837917
0.00212235
-0.00164516
0.0021507
0.00177459
0.00138278
-0.00113584
0.000762196
-0.00963488
0.00140095
-0.00103673
0.00161227
-0.00322285
0.00108326
-0.00530646
0.000997306
0.0017269
0.000908545
-0.00163283
0.000908545
0.00108326
-0.00322285
0.0017269
0.000997306
0.00161227
-0.00103673
0.00140095
0.00136152
-0.00153314
0.000831106
-0.00313994
0.000910486
0.000910486
0.000831106
-0.00153314
0.00136152
0.000738863
-0.00147773
0.000738863
)
;

boundaryField
{
    wall
    {
        type            calculated;
        value           uniform 0;
    }
    inlet
    {
        type            calculated;
        value           nonuniform List<scalar> 4(-0.016 -0.016 -0.016 -0.016);
    }
    outlet
    {
        type            calculated;
        value           nonuniform List<scalar> 4(0.0159895 0.0167644 0.0152566 0.0159895);
    }
}


// ************************************************************************* //
