/*--------------------------------*- C++ -*----------------------------------*\
  =========                 |
  \\      /  F ield         | OpenFOAM: The Open Source CFD Toolbox
   \\    /   O peration     | Website:  https://openfoam.org
    \\  /    A nd           | Version:  7
     \\/     M anipulation  |
\*---------------------------------------------------------------------------*/
FoamFile
{
    version     2.0;
    format      ascii;
    class       volVectorField;
    location    "0.3";
    object      U;
}
// * * * * * * * * * * * * * * * * * * * * * * * * * * * * * * * * * * * * * //

dimensions      [0 1 -1 0 0 0 0];

internalField   nonuniform List<vector> 
125
(
(-0.00223553 0.00363226 0.00223553)
(-0.00239035 0.014605 0.00239035)
(-0.00636568 0.00371028 0.002694)
(-0.002694 0.00371028 0.00636568)
(-0.00748544 0.0143568 0.00276439)
(-0.00308358 0.0195221 0.00308358)
(-0.00276439 0.0143568 0.00748544)
(-0.00865744 0.00289911 0.00313213)
(-0.00740676 0.00388442 0.00740676)
(-0.00313213 0.00289911 0.00865744)
(-0.00958186 0.00899903 0.00291678)
(-0.0127433 0.01941 0.00327529)
(-0.0081917 0.0143721 0.0081917)
(-0.00327053 0.0502708 0.00327053)
(-0.00327529 0.01941 0.0127433)
(-0.00291678 0.00899903 0.00958186)
(-0.00662604 0.00309079 0.00583166)
(-0.0121079 0.00334624 0.00743812)
(-0.00743812 0.00334624 0.0121079)
(-0.00583166 0.00309079 0.00662604)
(-0.00684314 0.0086494 0.00482611)
(-0.0146643 0.011288 0.00276423)
(-0.0119953 0.0098236 0.00756374)
(-0.0166032 0.0490062 0.00339652)
(-0.0127328 0.0195186 0.0127328)
(-0.00756374 0.0098236 0.0119953)
(-0.00535752 0.0491222 0.00535752)
(-0.00339652 0.0490062 0.0166032)
(-0.00276423 0.011288 0.0146643)
(-0.00482611 0.0086494 0.00684314)
(-0.00210077 0.00281409 0.0059161)
(-0.00984677 0.00440798 0.011616)
(-0.0132598 0.0031961 0.0132598)
(-0.011616 0.00440798 0.00984677)
(-0.0059161 0.00281409 0.00210077)
(-0.00234918 0.00745677 0.00488214)
(-0.00813584 0.0107673 0.00330046)
(-0.00922076 0.0116883 0.0105641)
(-0.0180305 0.0147312 0.00260293)
(-0.0151955 0.0120618 0.00833981)
(-0.0123497 0.00874888 0.0123497)
(-0.0453046 0.0482464 0.00529027)
(-0.0163958 0.0479868 0.0163958)
(-0.00833981 0.0120618 0.0151955)
(-0.0105641 0.0116883 0.00922076)
(-0.00529027 0.0482464 0.0453046)
(-0.00260293 0.0147312 0.0180305)
(-0.00330046 0.0107673 0.00813584)
(-0.00488214 0.00745677 0.00234918)
(-0.00246391 0.00415846 0.0113732)
(-0.0111762 0.00506676 0.0363293)
(-0.0363293 0.00506676 0.0111762)
(-0.0113732 0.00415846 0.00246391)
(-0.00309813 0.00890986 0.00316312)
(-0.00265197 0.0106906 0.0102059)
(-0.00887618 0.0130562 0.00286155)
(-0.00895051 0.0131314 0.00872967)
(-0.010094 0.0122986 0.0294412)
(-0.0487326 0.0100249 0.00300337)
(-0.0181974 0.0149832 0.00900854)
(-0.0112034 0.0103171 0.0112034)
(-0.0294412 0.0122986 0.010094)
(-0.0441797 0.047491 0.0441797)
(-0.00900854 0.0149832 0.0181974)
(-0.00872967 0.0131314 0.00895051)
(-0.0102059 0.0106906 0.00265197)
(-0.00300337 0.0100249 0.0487326)
(-0.00286155 0.0130562 0.00887618)
(-0.00316312 0.00890986 0.00309813)
(-0.00240458 0.00485972 0.0355791)
(-0.0344496 0.104574 0.0344496)
(-0.0355791 0.00485972 0.00240458)
(-0.00386866 0.00841132 0.00252304)
(-0.00318129 0.0116058 0.00781412)
(-0.00247152 0.0117561 0.0287609)
(-0.0136996 0.00787324 0.00303476)
(-0.00925857 0.0136666 0.00858139)
(-0.00821702 0.0131739 0.0146952)
(-0.0263128 0.0343664 0.0263128)
(-0.0476804 0.00986103 0.0137336)
(-0.0112038 0.00969617 0.0112038)
(-0.0146952 0.0131739 0.00821702)
(-0.0287609 0.0117561 0.00247152)
(-0.0137336 0.00986103 0.0476804)
(-0.00858139 0.0136666 0.00925857)
(-0.00781412 0.0116058 0.00318129)
(-0.00303476 0.00787324 0.0136996)
(-0.00252304 0.00841132 0.00386866)
(-0.0032349 0.0996798 0.0340082)
(-0.0340082 0.0996798 0.0032349)
(-0.00720695 0.00414882 0.00239718)
(-0.00376329 0.0093991 0.00704453)
(-0.0025911 0.0124309 0.0138281)
(-0.00293781 0.0336885 0.0259654)
(-0.0137609 0.00784034 0.0116482)
(-0.00756039 0.010232 0.0121211)
(-0.011991 0.0303563 0.011991)
(-0.0259654 0.0336885 0.00293781)
(-0.0153331 0.00496094 0.0153331)
(-0.0121211 0.010232 0.00756039)
(-0.0138281 0.0124309 0.0025911)
(-0.0116482 0.00784034 0.0137609)
(-0.00704453 0.0093991 0.00376329)
(-0.00239718 0.00414882 0.00720695)
(-0.00302279 0.0950424 0.00302279)
(-0.00689512 0.00433003 0.00741947)
(-0.00273568 0.0088586 0.0107017)
(-0.00281703 0.0295821 0.0116407)
(-0.00277754 0.0330325 0.00277754)
(-0.00837727 0.00467439 0.0139859)
(-0.00911132 0.0138688 0.00911132)
(-0.0116407 0.0295821 0.00281703)
(-0.0139859 0.00467439 0.00837727)
(-0.0107017 0.0088586 0.00273568)
(-0.00741947 0.00433003 0.00689512)
(-0.0034912 0.00365528 0.00966934)
(-0.00271471 0.0131789 0.00854195)
(-0.00255245 0.0289891 0.00255245)
(-0.00830597 0.00548463 0.00830597)
(-0.00854195 0.0131789 0.00271471)
(-0.00966934 0.00365528 0.0034912)
(-0.00291068 0.0050159 0.00701667)
(-0.00237119 0.0127811 0.00237119)
(-0.00701667 0.0050159 0.00291068)
(-0.00236648 0.00476597 0.00236648)
)
;

boundaryField
{
    wall
    {
        type            noSlip;
    }
    inlet
    {
        type            fixedValue;
        value           uniform (0 0.1 0);
    }
    outlet
    {
        type            pressureInletOutletVelocity;
        value           nonuniform List<vector> 4((-0.0032349 0.0996798 0.0340082) (-0.0344496 0.104574 0.0344496) (-0.00302279 0.0950424 0.00302279) (-0.0340082 0.0996798 0.0032349));
    }
}


// ************************************************************************* //
