/*--------------------------------*- C++ -*----------------------------------*\
  =========                 |
  \\      /  F ield         | OpenFOAM: The Open Source CFD Toolbox
   \\    /   O peration     | Website:  https://openfoam.org
    \\  /    A nd           | Version:  7
     \\/     M anipulation  |
\*---------------------------------------------------------------------------*/
FoamFile
{
    version     2.0;
    format      ascii;
    class       volScalarField;
    location    "0.4";
    object      p;
}
// * * * * * * * * * * * * * * * * * * * * * * * * * * * * * * * * * * * * * //

dimensions      [0 2 -2 0 0 0 0];

internalField   nonuniform List<scalar> 
125
(
0.0225898
0.020627
0.0224511
0.0224511
0.0209555
0.0248573
0.0209555
0.0217473
0.0218619
0.0217473
0.0203014
0.0255485
0.0207515
0.022203
0.0255485
0.0203014
0.0211017
0.0212759
0.0212759
0.0211017
0.0202317
0.0214257
0.0199602
0.0234485
0.0259259
0.0199602
0.0315464
0.0234485
0.0214257
0.0202317
0.0212878
0.018839
0.0227087
0.018839
0.0212878
0.0203372
0.0225311
0.017846
0.0189692
0.0218131
0.021006
0.0308507
0.0244278
0.0218131
0.017846
0.0308507
0.0189692
0.0225311
0.0203372
0.0193435
0.0213771
0.0213771
0.0193435
0.0215394
0.0180482
0.0212716
0.0219549
0.0196378
0.0163262
0.0197632
0.0216631
0.0196378
0.0304453
0.0197632
0.0219549
0.0180482
0.0163262
0.0212716
0.0215394
0.0223637
0.0130212
0.0223637
0.0202266
0.0211256
0.0203306
0.0233161
0.0209963
0.0219754
0.00974374
0.0176863
0.0195153
0.0219754
0.0203306
0.0176863
0.0209963
0.0211256
0.0233161
0.0202266
0.0152049
0.0152049
0.0204516
0.0200149
0.0223238
0.0104145
0.0236551
0.0199303
0.0207725
0.0104145
0.018373
0.0199303
0.0223238
0.0236551
0.0200149
0.0204516
0.0176716
0.0207644
0.0201157
0.0214493
0.0112485
0.020639
0.0178349
0.0214493
0.020639
0.0201157
0.0207644
0.0203702
0.0179155
0.0224876
0.0207034
0.0179155
0.0203702
0.0202629
0.0183704
0.0202629
0.0204214
)
;

boundaryField
{
    wall
    {
        type            zeroGradient;
    }
    inlet
    {
        type            zeroGradient;
    }
    outlet
    {
        type            fixedValue;
        value           uniform 0;
    }
}


// ************************************************************************* //
