/*--------------------------------*- C++ -*----------------------------------*\
  =========                 |
  \\      /  F ield         | OpenFOAM: The Open Source CFD Toolbox
   \\    /   O peration     | Website:  https://openfoam.org
    \\  /    A nd           | Version:  7
     \\/     M anipulation  |
\*---------------------------------------------------------------------------*/
FoamFile
{
    version     2.0;
    format      ascii;
    class       surfaceScalarField;
    location    "0.4";
    object      phi;
}
// * * * * * * * * * * * * * * * * * * * * * * * * * * * * * * * * * * * * * //

dimensions      [0 3 -1 0 0 0 0];

internalField   nonuniform List<scalar> 
300
(
-0.00135211
0.000676057
0.000676057
0.000756769
-0.00286565
0.000756769
-0.00137226
0.00121621
0.000832107
-0.00137226
0.000832107
0.00121621
0.00139321
-0.00288466
0.000875965
0.00121711
-0.00529987
0.00121711
0.000875965
-0.00288466
0.00139321
-0.000885299
0.00123693
0.000864579
-0.00141938
0.0015418
0.0015418
-0.000885299
0.000864579
0.00123693
0.00131154
-0.0016663
0.000862672
0.00234081
-0.00526474
0.00125638
0.00164097
-0.00294939
0.00164097
0.00153346
-0.00836679
0.00153346
0.00125638
-0.00526474
0.00234081
0.000862672
-0.0016663
0.00131154
-0.000896668
0.000664071
0.00146952
-0.00100481
0.00185118
0.00156001
-0.00100481
0.00156001
0.00185118
-0.000896668
0.00146952
0.000664071
0.000719008
-0.00163232
0.00132818
0.0017523
-0.00194188
0.00086409
0.0018055
-0.00184168
0.00153501
0.0029553
-0.0082407
0.00155412
0.00241676
-0.00527015
0.00241676
0.00153501
-0.00184168
0.0018055
0.0038166
0.0038166
0.00155412
-0.0082407
0.0029553
0.00086409
-0.00194188
0.0017523
0.00132818
-0.00163232
0.000719008
-0.000766056
0.00143013
-0.00124851
0.000943735
0.00362548
-0.00088714
0.00200358
0.00200358
-0.00124851
0.00362548
0.000943735
-0.000766056
0.00143013
-0.00133185
0.0012848
0.00093764
-0.00181885
0.00100119
0.000931912
-0.00214885
0.00310211
0.00204383
-0.00191778
0.000887365
0.00191086
-0.00206597
0.00159429
0.00187371
-0.00156453
0.00187371
0.00781253
0.00376338
0.00299737
-0.00815665
0.00299737
0.00159429
-0.00206597
0.00191086
0.00310211
-0.00214885
0.000931912
0.00376338
0.00781253
0.000887365
-0.00191778
0.00204383
0.00100119
-0.00181885
0.00093764
0.0012848
-0.00133185
-0.00112254
0.0034964
-0.00132007
0.00102034
0.00592879
-0.00132007
0.00592879
0.00102034
-0.00112254
0.0034964
-0.00129126
0.000897057
-0.00188547
0.00297964
0.00105908
-0.00175031
0.000916211
0.00101667
-0.00209414
0.00184067
0.000966531
-0.00213919
0.0048284
0.00462886
0.00126589
0.00214445
-0.00198057
0.00165488
0.00156263
-0.0015012
0.00156263
0.0048284
-0.00213919
0.000966531
0.00768505
0.00768505
0.00165488
-0.00198057
0.00214445
0.00184067
-0.00209414
0.00101667
0.00297964
-0.00188547
0.00126589
0.00462886
0.000916211
-0.00175031
0.00105908
0.000897057
-0.00129126
-0.00123651
0.00575324
-0.0106173
0.00289194
0.00289194
-0.00123651
0.00575324
-0.00100243
0.000770247
-0.00160946
0.00163771
-0.00199809
0.00470775
0.00174594
0.0011326
0.00109604
-0.00183941
0.00170989
0.000838902
-0.0017856
0.00221082
0.00229475
-0.00554999
0.00229475
0.00462557
0.00234481
0.00147597
-0.00114338
0.00147597
0.00221082
-0.0017856
0.000838902
0.00470775
-0.00199809
0.00234481
0.00462557
0.00170989
-0.00183941
0.00109604
0.00163771
-0.00160946
0.0011326
0.00174594
0.000770247
-0.00100243
-0.0101523
0.00280967
-0.0101523
0.00280967
0.000743518
-0.00112589
0.00138271
-0.00159323
0.00207176
-0.00538508
0.00223533
0.00175265
0.00216611
0.00082768
-0.00123386
0.00180644
0.00113725
-0.00340285
0.00113725
0.00223533
-0.00538508
0.00177311
0.00177311
0.00180644
-0.00123386
0.00082768
0.00207176
-0.00159323
0.00216611
0.00175265
0.00138271
-0.00112589
0.000743518
-0.00971412
0.00137028
-0.00100688
0.00162404
-0.00323931
0.00106324
-0.00524347
0.000964753
0.00174061
0.00093162
-0.00165322
0.00093162
0.00106324
-0.00323931
0.00174061
0.000964753
0.00162404
-0.00100688
0.00137028
0.00132815
-0.00152188
0.000838227
-0.003117
0.000914
0.000914
0.000838227
-0.00152188
0.00132815
0.000720272
-0.00144054
0.000720272
)
;

boundaryField
{
    wall
    {
        type            calculated;
        value           uniform 0;
    }
    inlet
    {
        type            calculated;
        value           nonuniform List<scalar> 4(-0.016 -0.016 -0.016 -0.016);
    }
    outlet
    {
        type            calculated;
        value           nonuniform List<scalar> 4(0.0159878 0.016691 0.0153335 0.0159878);
    }
}


// ************************************************************************* //
