/*--------------------------------*- C++ -*----------------------------------*\
  =========                 |
  \\      /  F ield         | OpenFOAM: The Open Source CFD Toolbox
   \\    /   O peration     | Website:  https://openfoam.org
    \\  /    A nd           | Version:  7
     \\/     M anipulation  |
\*---------------------------------------------------------------------------*/
FoamFile
{
    version     2.0;
    format      ascii;
    class       volVectorField;
    location    "0.4";
    object      U;
}
// * * * * * * * * * * * * * * * * * * * * * * * * * * * * * * * * * * * * * //

dimensions      [0 1 -1 0 0 0 0];

internalField   nonuniform List<vector> 
125
(
(-0.00219901 0.00331002 0.00219901)
(-0.00231448 0.0145446 0.00231448)
(-0.00631838 0.00349336 0.00273375)
(-0.00273375 0.00349336 0.00631838)
(-0.00743323 0.0145807 0.00278303)
(-0.00295588 0.0194708 0.00295588)
(-0.00278303 0.0145807 0.00743323)
(-0.0086197 0.00269874 0.00315496)
(-0.00746482 0.00376542 0.00746482)
(-0.00315496 0.00269874 0.0086197)
(-0.00955314 0.00888196 0.0029577)
(-0.0130054 0.0196967 0.00322564)
(-0.00831675 0.0148933 0.00831675)
(-0.00308811 0.0497375 0.00308811)
(-0.00322564 0.0196967 0.0130054)
(-0.0029577 0.00888196 0.00955314)
(-0.00652318 0.00296252 0.00601285)
(-0.0123132 0.00319905 0.00721784)
(-0.00721784 0.00319905 0.0123132)
(-0.00601285 0.00296252 0.00652318)
(-0.0067558 0.0087319 0.00510995)
(-0.0148643 0.0110195 0.00271617)
(-0.0123496 0.00992442 0.00747465)
(-0.0170167 0.0488894 0.0032852)
(-0.0131924 0.0201785 0.0131924)
(-0.00747465 0.00992442 0.0123496)
(-0.00515961 0.0509834 0.00515961)
(-0.0032852 0.0488894 0.0170167)
(-0.00271617 0.0110195 0.0148643)
(-0.00510995 0.0087319 0.0067558)
(-0.00202581 0.00264257 0.0059965)
(-0.00994512 0.00428452 0.0114)
(-0.01308 0.00299032 0.01308)
(-0.0114 0.00428452 0.00994512)
(-0.0059965 0.00264257 0.00202581)
(-0.00231029 0.00731155 0.00510298)
(-0.00805437 0.0107709 0.00337421)
(-0.00945517 0.0120538 0.0106351)
(-0.0182022 0.0140842 0.00249926)
(-0.015697 0.0120741 0.0083274)
(-0.0124092 0.00862673 0.0124092)
(-0.0446546 0.0505713 0.00513528)
(-0.0170602 0.0483368 0.0170602)
(-0.0083274 0.0120741 0.015697)
(-0.0106351 0.0120538 0.00945517)
(-0.00513528 0.0505713 0.0446546)
(-0.00249926 0.0140842 0.0182022)
(-0.00337421 0.0107709 0.00805437)
(-0.00510298 0.00731155 0.00231029)
(-0.00237911 0.00394693 0.0109405)
(-0.0110355 0.00495094 0.036117)
(-0.036117 0.00495094 0.0110355)
(-0.0109405 0.00394693 0.00237911)
(-0.00319123 0.00867704 0.00318004)
(-0.0026372 0.010763 0.0100916)
(-0.00864672 0.0129691 0.00289048)
(-0.00907092 0.01352 0.00879364)
(-0.0101681 0.0123346 0.0301691)
(-0.0482154 0.00993757 0.00280485)
(-0.0187368 0.0146336 0.00897304)
(-0.0112055 0.0101389 0.0112055)
(-0.0301691 0.0123346 0.0101681)
(-0.0439291 0.0503125 0.0439291)
(-0.00897304 0.0146336 0.0187368)
(-0.00879364 0.01352 0.00907092)
(-0.0100916 0.010763 0.0026372)
(-0.00280485 0.00993757 0.0482154)
(-0.00289048 0.0129691 0.00864672)
(-0.00318004 0.00867704 0.00319123)
(-0.00225871 0.00465809 0.0348969)
(-0.034751 0.104136 0.034751)
(-0.0348969 0.00465809 0.00225871)
(-0.00396392 0.00807595 0.00251246)
(-0.00329293 0.0117063 0.00761788)
(-0.00239374 0.011578 0.0291953)
(-0.0130884 0.00800312 0.00294951)
(-0.00926172 0.0138568 0.0087497)
(-0.00814554 0.0132256 0.0148111)
(-0.0271783 0.0347133 0.0271783)
(-0.0476249 0.00996055 0.0135556)
(-0.0112077 0.00929941 0.0112077)
(-0.0148111 0.0132256 0.00814554)
(-0.0291953 0.011578 0.00239374)
(-0.0135556 0.00996055 0.0476249)
(-0.0087497 0.0138568 0.00926172)
(-0.00761788 0.0117063 0.00329293)
(-0.00294951 0.00800312 0.0130884)
(-0.00251246 0.00807595 0.00396392)
(-0.00312858 0.0997041 0.0339394)
(-0.0339394 0.0997041 0.00312858)
(-0.00737422 0.00407499 0.00229802)
(-0.00389641 0.00924687 0.0069678)
(-0.00255325 0.0122766 0.0135954)
(-0.00297386 0.0336682 0.0266459)
(-0.0134396 0.008143 0.0118106)
(-0.00749249 0.0100719 0.0125127)
(-0.0119977 0.0310535 0.0119977)
(-0.0266459 0.0336682 0.00297386)
(-0.0149369 0.00484349 0.0149369)
(-0.0125127 0.0100719 0.00749249)
(-0.0135954 0.0122766 0.00255325)
(-0.0118106 0.008143 0.0134396)
(-0.0069678 0.00924687 0.00389641)
(-0.00229802 0.00407499 0.00737422)
(-0.00284796 0.0955739 0.00284796)
(-0.00715759 0.00436536 0.00725468)
(-0.00271839 0.00850532 0.0108292)
(-0.00273915 0.0299709 0.0114274)
(-0.00276102 0.0326652 0.00276102)
(-0.00806068 0.00476687 0.0141738)
(-0.00935727 0.0137974 0.00935727)
(-0.0114274 0.0299709 0.00273915)
(-0.0141738 0.00476687 0.00806068)
(-0.0108292 0.00850532 0.00271839)
(-0.00725468 0.00436536 0.00715759)
(-0.00350103 0.00363444 0.00951324)
(-0.00271046 0.0128194 0.00865224)
(-0.0023974 0.0291067 0.0023974)
(-0.00828003 0.00581321 0.00828003)
(-0.00865224 0.0128194 0.00271046)
(-0.00951324 0.00363444 0.00350103)
(-0.00293563 0.00522106 0.00685705)
(-0.00229178 0.012172 0.00229178)
(-0.00685705 0.00522106 0.00293563)
(-0.00229573 0.0048815 0.00229573)
)
;

boundaryField
{
    wall
    {
        type            noSlip;
    }
    inlet
    {
        type            fixedValue;
        value           uniform (0 0.1 0);
    }
    outlet
    {
        type            pressureInletOutletVelocity;
        value           nonuniform List<vector> 4((-0.00312858 0.0997041 0.0339394) (-0.034751 0.104136 0.034751) (-0.00284796 0.0955739 0.00284796) (-0.0339394 0.0997041 0.00312858));
    }
}


// ************************************************************************* //
