/*--------------------------------*- C++ -*----------------------------------*\
  =========                 |
  \\      /  F ield         | OpenFOAM: The Open Source CFD Toolbox
   \\    /   O peration     | Website:  https://openfoam.org
    \\  /    A nd           | Version:  7
     \\/     M anipulation  |
\*---------------------------------------------------------------------------*/
FoamFile
{
    version     2.0;
    format      ascii;
    class       volScalarField;
    location    "0.5";
    object      p;
}
// * * * * * * * * * * * * * * * * * * * * * * * * * * * * * * * * * * * * * //

dimensions      [0 2 -2 0 0 0 0];

internalField   nonuniform List<scalar> 
125
(
0.0219403
0.0204281
0.0218272
0.0218272
0.0206145
0.0238654
0.0206145
0.0211567
0.0213467
0.0211567
0.0198661
0.0243344
0.0203703
0.0225316
0.0243344
0.0198661
0.0205677
0.020798
0.020798
0.0205677
0.0196521
0.0208572
0.0195556
0.023326
0.0246004
0.0195556
0.0310755
0.023326
0.0208572
0.0196521
0.0206664
0.0188032
0.021768
0.0188032
0.0206664
0.0196941
0.0218186
0.0177633
0.0190571
0.0211873
0.0203099
0.0294739
0.0239404
0.0211873
0.0177633
0.0294739
0.0190571
0.0218186
0.0196941
0.0191642
0.0204353
0.0204353
0.0191642
0.021002
0.0179031
0.0207335
0.0214084
0.0190436
0.016486
0.0195967
0.021043
0.0190436
0.0282776
0.0195967
0.0214084
0.0179031
0.016486
0.0207335
0.021002
0.0211204
0.012701
0.0211204
0.0198267
0.0207234
0.019528
0.0222711
0.0204676
0.021301
0.0107818
0.0174738
0.0192427
0.021301
0.019528
0.0174738
0.0204676
0.0207234
0.0222711
0.0198267
0.0143945
0.0143945
0.0200583
0.0195892
0.0215657
0.0111869
0.0224819
0.0194876
0.0202721
0.0111869
0.0182994
0.0194876
0.0215657
0.0224819
0.0195892
0.0200583
0.0162917
0.0202954
0.0196068
0.0207223
0.0117286
0.0200618
0.0177266
0.0207223
0.0200618
0.0196068
0.0202954
0.0199309
0.0177554
0.0214456
0.0202073
0.0177554
0.0199309
0.0198354
0.0180946
0.0198354
0.0199739
)
;

boundaryField
{
    wall
    {
        type            zeroGradient;
    }
    inlet
    {
        type            zeroGradient;
    }
    outlet
    {
        type            fixedValue;
        value           uniform 0;
    }
}


// ************************************************************************* //
