/*--------------------------------*- C++ -*----------------------------------*\
  =========                 |
  \\      /  F ield         | OpenFOAM: The Open Source CFD Toolbox
   \\    /   O peration     | Website:  https://openfoam.org
    \\  /    A nd           | Version:  7
     \\/     M anipulation  |
\*---------------------------------------------------------------------------*/
FoamFile
{
    version     2.0;
    format      ascii;
    class       surfaceScalarField;
    location    "0.5";
    object      phi;
}
// * * * * * * * * * * * * * * * * * * * * * * * * * * * * * * * * * * * * * //

dimensions      [0 3 -1 0 0 0 0];

internalField   nonuniform List<scalar> 
300
(
-0.00133157
0.000665786
0.000665786
0.000753653
-0.00283888
0.000753653
-0.00137496
0.00120586
0.000834892
-0.00137496
0.000834892
0.00120586
0.00139086
-0.0029014
0.000889237
0.00123154
-0.00530196
0.00123154
0.000889237
-0.0029014
0.00139086
-0.000862696
0.00122171
0.000846845
-0.00144704
0.00155841
0.00155841
-0.000862696
0.000846845
0.00122171
0.00130385
-0.00163501
0.000859317
0.00235519
-0.00531307
0.00128801
0.00167349
-0.00301555
0.00167349
0.00156713
-0.00843622
0.00156713
0.00128801
-0.00531307
0.00235519
0.000859317
-0.00163501
0.00130385
-0.000887054
0.000654608
0.00145415
-0.000998572
0.00185621
0.00154762
-0.000998572
0.00154762
0.00185621
-0.000887054
0.00145415
0.000654608
0.000710968
-0.00163611
0.00134194
0.00176025
-0.00190112
0.000861044
0.00183785
-0.00184652
0.00154291
0.00300075
-0.00835521
0.00160852
0.00246636
-0.00537225
0.00246636
0.00154291
-0.00184652
0.00183785
0.00378189
0.00378189
0.00160852
-0.00835521
0.00300075
0.000861044
-0.00190112
0.00176025
0.00134194
-0.00163611
0.000710968
-0.000738398
0.00139301
-0.00125827
0.000947658
0.00362098
-0.000869734
0.00198249
0.00198249
-0.00125827
0.00362098
0.000947658
-0.000738398
0.00139301
-0.0013074
0.00127997
0.000933467
-0.00181378
0.00100446
0.00094949
-0.00219326
0.00316528
0.00205985
-0.00184804
0.000887827
0.00195008
-0.00206017
0.00159099
0.0018818
-0.00154751
0.0018818
0.00767254
0.00375414
0.00308512
-0.00832545
0.00308512
0.00159099
-0.00206017
0.00195008
0.00316528
-0.00219326
0.00094949
0.00375414
0.00767254
0.000887827
-0.00184804
0.00205985
0.00100446
-0.00181378
0.000933467
0.00127997
-0.0013074
-0.00110825
0.00344891
-0.00132578
0.00101153
0.00591772
-0.00132578
0.00591772
0.00101153
-0.00110825
0.00344891
-0.00125199
0.000878059
-0.00189019
0.0030114
0.00104749
-0.0017326
0.00093117
0.00103083
-0.00213065
0.0018611
0.000974484
-0.00214837
0.00489518
0.00456972
0.00125478
0.00219847
-0.00194345
0.00165776
0.00155263
-0.00147079
0.00155263
0.00489518
-0.00214837
0.000974484
0.00759141
0.00759141
0.00165776
-0.00194345
0.00219847
0.0018611
-0.00213065
0.00103083
0.0030114
-0.00189019
0.00125478
0.00456972
0.00093117
-0.0017326
0.00104749
0.000878059
-0.00125199
-0.00122461
0.00568505
-0.0106516
0.00292283
0.00292283
-0.00122461
0.00568505
-0.00097049
0.000765991
-0.00159998
0.00161868
-0.0019795
0.00474078
0.00169729
0.00113983
0.00110567
-0.0018522
0.00174552
0.000836017
-0.00178163
0.00221097
0.00236265
-0.00558652
0.00236265
0.00461045
0.00229228
0.00147681
-0.0011089
0.00147681
0.00221097
-0.00178163
0.000836017
0.00474078
-0.0019795
0.00229228
0.00461045
0.00174552
-0.0018522
0.00110567
0.00161868
-0.00159998
0.00113983
0.00169729
0.000765991
-0.00097049
-0.010191
0.00281175
-0.010191
0.00281175
0.000726804
-0.00111501
0.00138669
-0.00156066
0.00203586
-0.00537385
0.00228624
0.00172985
0.00216823
0.000822615
-0.00122455
0.00184263
0.00114122
-0.00344701
0.00114122
0.00228624
-0.00537385
0.00173783
0.00173783
0.00184263
-0.00122455
0.000822615
0.00203586
-0.00156066
0.00216823
0.00172985
0.00138669
-0.00111501
0.000726804
-0.0097608
0.00134164
-0.000981931
0.00163058
-0.0032452
0.00104842
-0.00518832
0.000937152
0.00174436
0.000951389
-0.00166452
0.000951389
0.00104842
-0.0032452
0.00174436
0.000937152
0.00163058
-0.000981931
0.00134164
0.00129686
-0.00150659
0.000843358
-0.00309147
0.000912106
0.000912106
0.000843358
-0.00150659
0.00129686
0.000702377
-0.00140475
0.000702377
)
;

boundaryField
{
    wall
    {
        type            calculated;
        value           uniform 0;
    }
    inlet
    {
        type            calculated;
        value           nonuniform List<scalar> 4(-0.016 -0.016 -0.016 -0.016);
    }
    outlet
    {
        type            calculated;
        value           nonuniform List<scalar> 4(0.0159872 0.0166414 0.0153843 0.0159872);
    }
}


// ************************************************************************* //
