/*--------------------------------*- C++ -*----------------------------------*\
  =========                 |
  \\      /  F ield         | OpenFOAM: The Open Source CFD Toolbox
   \\    /   O peration     | Website:  https://openfoam.org
    \\  /    A nd           | Version:  7
     \\/     M anipulation  |
\*---------------------------------------------------------------------------*/
FoamFile
{
    version     2.0;
    format      ascii;
    class       volVectorField;
    location    "0.5";
    object      U;
}
// * * * * * * * * * * * * * * * * * * * * * * * * * * * * * * * * * * * * * //

dimensions      [0 1 -1 0 0 0 0];

internalField   nonuniform List<vector> 
125
(
(-0.00216044 0.00306143 0.00216044)
(-0.00226301 0.0144264 0.00226301)
(-0.0062614 0.00331868 0.00275645)
(-0.00275645 0.00331868 0.0062614)
(-0.00742162 0.0147 0.00280839)
(-0.00286673 0.0195151 0.00286673)
(-0.00280839 0.0147 0.00742162)
(-0.00856681 0.00251569 0.00316036)
(-0.00749626 0.00366231 0.00749626)
(-0.00316036 0.00251569 0.00856681)
(-0.00956213 0.00876201 0.00299544)
(-0.013197 0.0200176 0.00319395)
(-0.00845452 0.0152748 0.00845452)
(-0.00298829 0.0493325 0.00298829)
(-0.00319395 0.0200176 0.013197)
(-0.00299544 0.00876201 0.00956213)
(-0.00643015 0.0028204 0.00610839)
(-0.0124317 0.00305201 0.00706041)
(-0.00706041 0.00305201 0.0124317)
(-0.00610839 0.0028204 0.00643015)
(-0.00670006 0.00878065 0.00531112)
(-0.0149753 0.0108432 0.00267636)
(-0.0126511 0.00999413 0.00742654)
(-0.0174584 0.0487704 0.00323772)
(-0.0135531 0.0208187 0.0135531)
(-0.00742654 0.00999413 0.0126511)
(-0.0051196 0.052603 0.0051196)
(-0.00323772 0.0487704 0.0174584)
(-0.00267636 0.0108432 0.0149753)
(-0.00531112 0.00878065 0.00670006)
(-0.00196817 0.00246632 0.00600237)
(-0.00999182 0.00414247 0.0112591)
(-0.0129834 0.00281919 0.0129834)
(-0.0112591 0.00414247 0.00999182)
(-0.00600237 0.00246632 0.00196817)
(-0.00228114 0.00717941 0.00524067)
(-0.00796752 0.0107806 0.00342027)
(-0.00964071 0.0123273 0.0107061)
(-0.0184369 0.0135832 0.00243468)
(-0.0160632 0.0121334 0.00832072)
(-0.0124946 0.00855455 0.0124946)
(-0.0439413 0.0525693 0.00511434)
(-0.0177163 0.0485648 0.0177163)
(-0.00832072 0.0121334 0.0160632)
(-0.0107061 0.0123273 0.00964071)
(-0.00511434 0.0525693 0.0439413)
(-0.00243468 0.0135832 0.0184369)
(-0.00342027 0.0107806 0.00796752)
(-0.00524067 0.00717941 0.00228114)
(-0.00231975 0.00373511 0.0106294)
(-0.0109552 0.00488714 0.0359599)
(-0.0359599 0.00488714 0.0109552)
(-0.0106294 0.00373511 0.00231975)
(-0.00325741 0.0084871 0.0031739)
(-0.00263195 0.010792 0.0100071)
(-0.00850202 0.0128203 0.00291763)
(-0.00915248 0.0138324 0.00884864)
(-0.0102584 0.0124168 0.0306825)
(-0.0476537 0.00989444 0.00267919)
(-0.0192748 0.0143604 0.00899942)
(-0.0112104 0.0100302 0.0112104)
(-0.0306825 0.0124168 0.0102584)
(-0.0435007 0.0527373 0.0435007)
(-0.00899942 0.0143604 0.0192748)
(-0.00884864 0.0138324 0.00915248)
(-0.0100071 0.010792 0.00263195)
(-0.00267919 0.00989444 0.0476537)
(-0.00291763 0.0128203 0.00850202)
(-0.0031739 0.0084871 0.00325741)
(-0.00216761 0.00453501 0.0343517)
(-0.0350278 0.103838 0.0350278)
(-0.0343517 0.00453501 0.00216761)
(-0.00403688 0.00777042 0.00250781)
(-0.0033822 0.0117559 0.00745661)
(-0.00235156 0.0114891 0.0294567)
(-0.0125937 0.0080463 0.00288612)
(-0.00931398 0.0139328 0.00890276)
(-0.00809388 0.013299 0.0149155)
(-0.0277987 0.0350272 0.0277987)
(-0.047395 0.0100735 0.013421)
(-0.0112616 0.00898977 0.0112616)
(-0.0149155 0.013299 0.00809388)
(-0.0294567 0.0114891 0.00235156)
(-0.013421 0.0100735 0.047395)
(-0.00890276 0.0139328 0.00931398)
(-0.00745661 0.0117559 0.0033822)
(-0.00288612 0.0080463 0.0125937)
(-0.00250781 0.00777042 0.00403688)
(-0.00311017 0.0997204 0.0339018)
(-0.0339018 0.0997204 0.00311017)
(-0.0074301 0.004006 0.00221413)
(-0.00401487 0.00908162 0.00691082)
(-0.00252965 0.0121719 0.0134177)
(-0.0030582 0.0336697 0.0271005)
(-0.0131678 0.00833558 0.0118894)
(-0.00746512 0.00992164 0.0128348)
(-0.0120123 0.0315312 0.0120123)
(-0.0271005 0.0336697 0.0030582)
(-0.0146079 0.00476264 0.0146079)
(-0.0128348 0.00992164 0.00746512)
(-0.0134177 0.0121719 0.00252965)
(-0.0118894 0.00833558 0.0131678)
(-0.00691082 0.00908162 0.00401487)
(-0.00221413 0.004006 0.0074301)
(-0.00277528 0.0959203 0.00277528)
(-0.00729874 0.004396 0.00710101)
(-0.00271254 0.0082035 0.0109129)
(-0.00270018 0.0301822 0.0112667)
(-0.00279897 0.0323771 0.00279897)
(-0.00780733 0.00484046 0.0142383)
(-0.00955767 0.0137227 0.00955767)
(-0.0112667 0.0301822 0.00270018)
(-0.0142383 0.00484046 0.00780733)
(-0.0109129 0.0082035 0.00271254)
(-0.00710101 0.004396 0.00729874)
(-0.00348874 0.00362931 0.00934748)
(-0.00271664 0.0125149 0.00872726)
(-0.00229799 0.0290869 0.00229799)
(-0.00822401 0.00608574 0.00822401)
(-0.00872726 0.0125149 0.00271664)
(-0.00934748 0.00362931 0.00348874)
(-0.00294836 0.005392 0.00669467)
(-0.00223449 0.0116828 0.00223449)
(-0.00669467 0.005392 0.00294836)
(-0.00222769 0.00498378 0.00222769)
)
;

boundaryField
{
    wall
    {
        type            noSlip;
    }
    inlet
    {
        type            fixedValue;
        value           uniform (0 0.1 0);
    }
    outlet
    {
        type            pressureInletOutletVelocity;
        value           nonuniform List<vector> 4((-0.00311017 0.0997204 0.0339018) (-0.0350278 0.103838 0.0350278) (-0.00277528 0.0959203 0.00277528) (-0.0339018 0.0997204 0.00311017));
    }
}


// ************************************************************************* //
