# vtk DataFile Version 4.1
vtk output
ASCII
DATASET STRUCTURED_GRID
FIELD FieldData 1
Properties 1 4 float
2.95 0 2.1e+06 1.3911 
DIMENSIONS 40 32 32
POINTS 40960 float
0 0 0 -0.000677109 0.0187339 0 0.00212601 0.0560976 0 
0.00770867 0.0931496 0 0.0160473 0.129677 0 0.0270866 0.16548 0 
0.0407796 0.200354 0 0.0570315 0.234118 0 0.0757717 0.266559 0 
0.096874 0.29752 0 0.120236 0.326811 0 0.145717 0.354283 0 
0.173189 0.379764 0 0.20248 0.403126 0 0.233441 0.424228 0 
0.265882 0.442968 0 0.299646 0.45922 0 0.334512 0.472905 0 
0.370299 0.483945 0 0.406795 0.492283 0 0.443802 0.497866 0 
0.481115 0.500661 0 0.518543 0.50137 0 0.561811 0.50137 0 
0.618551 0.501378 0 0.692968 0.501378 0 0.790575 0.501378 0 
0.918606 0.501378 0 1.08654 0.501378 0 1.30677 0.501378 0 
1.59575 0.501378 0 1.9748 0.501378 0 2.47197 0.501378 0 
3.12417 0.501378 0 3.97976 0.501378 0 5.10213 0.501378 0 
6.57433 0.501378 0 8.50551 0.501378 0 11.0394 0.501378 0 
14.3622 0.501378 0 -0.000677109 0 0 -0.000677109 0.0187339 0 
0.00212601 0.0560976 0 0.00770867 0.0931496 0 0.0160473 0.129677 0 
0.0270866 0.16548 0 0.0407796 0.200354 0 0.0570315 0.234118 0 
0.0757717 0.266559 0 0.096874 0.29752 0 0.120236 0.326811 0 
0.145717 0.354283 0 0.173189 0.379764 0 0.20248 0.403126 0 
0.233441 0.424228 0 0.265882 0.442968 0 0.299646 0.45922 0 
0.334512 0.472905 0 0.370299 0.483945 0 0.406795 0.492283 0 
0.443802 0.497866 0 0.481115 0.500661 0 0.518543 0.50137 0 
0.561811 0.50137 0 0.618551 0.501378 0 0.692968 0.501378 0 
0.790575 0.501378 0 0.918606 0.501378 0 1.08654 0.501378 0 
1.30677 0.501378 0 1.59575 0.501378 0 1.9748 0.501378 0 
2.47197 0.501378 0 3.12417 0.501378 0 3.97976 0.501378 0 
5.10213 0.501378 0 6.57433 0.501378 0 8.50551 0.501378 0 
11.0394 0.501378 0 14.3622 0.501378 0 -0.00375593 0 0 
-0.00375593 0.0188496 0 -0.000936985 0.0564425 0 0.00467721 0.0937165 0 
0.0130709 0.130472 0 0.0241811 0.166496 0 0.0379528 0.201591 0 
0.0543071 0.235551 0 0.0731575 0.268205 0 0.0943937 0.299346 0 
0.117898 0.328827 0 0.143543 0.356457 0 0.171173 0.382102 0 
0.200654 0.405606 0 0.231795 0.426843 0 0.264449 0.445693 0 
0.298409 0.462047 0 0.33348 0.475811 0 0.369441 0.486905 0 
0.406094 0.495283 0 0.443232 0.50089 0 0.480661 0.503716 0 
0.518189 0.504433 0 0.561545 0.504449 0 0.618362 0.504457 0 
0.692843 0.504465 0 0.790512 0.504465 0 0.918583 0.504465 0 
1.08654 0.504465 0 1.30677 0.504465 0 1.59575 0.504465 0 
1.9748 0.504465 0 2.47197 0.504465 0 3.12417 0.504465 0 
3.97976 0.504465 0 5.10213 0.504465 0 6.57433 0.504465 0 
8.50551 0.504465 0 11.0394 0.504465 0 14.3622 0.504465 0 
-0.00756693 0 0 -0.00756693 0.0189921 0 -0.00473231 0.0568693 0 
0.000929177 0.0944252 0 0.00938585 0.131457 0 0.0205748 0.167756 0 
0.0344567 0.203118 0 0.0509371 0.237339 0 0.0699292 0.270228 0 
0.0913229 0.301614 0 0.115008 0.331315 0 0.140843 0.359157 0 
0.168685 0.384992 0 0.198386 0.408677 0 0.229772 0.430071 0 
0.262661 0.449063 0 0.296882 0.465543 0 0.332205 0.479409 0 
0.368378 0.490575 0 0.40522 0.499 0 0.442527 0.504646 0 
0.480099 0.507496 0 0.517752 0.508228 0 0.561216 0.508252 0 
0.618126 0.508268 0 0.692693 0.508276 0 0.790425 0.508283 0 
0.918559 0.508283 0 1.08654 0.508283 0 1.30677 0.508283 0 
1.59575 0.508283 0 1.9748 0.508283 0 2.47197 0.508283 0 
3.12417 0.508283 0 3.97976 0.508283 0 5.10213 0.508283 0 
6.57433 0.508283 0 8.50551 0.508283 0 11.0394 0.508283 0 
14.3622 0.508283 0 -0.0122913 0 0 -0.0122913 0.0191685 0 
-0.00942516 0.0573984 0 -0.0037086 0.0953071 0 0.00481895 0.132685 0 
0.0161181 0.169315 0 0.030126 0.205 0 0.0467638 0.239543 0 
0.0659292 0.272748 0 0.0875276 0.304417 0 0.111425 0.334394 0 
0.137504 0.362496 0 0.165606 0.388575 0 0.195583 0.412472 0 
0.227252 0.434071 0 0.260457 0.453236 0 0.295 0.469874 0 
0.330622 0.483858 0 0.367063 0.49511 0 0.404142 0.503598 0 
0.441654 0.509291 0 0.479405 0.512165 0 0.517211 0.512929 0 
0.560808 0.512968 0 0.617835 0.512992 0 0.692496 0.513 0 
0.790315 0.513008 0 0.91852 0.513008 0 1.08654 0.513008 0 
1.30677 0.513008 0 1.59575 0.513008 0 1.9748 0.513008 0 
2.47197 0.513008 0 3.12417 0.513008 0 3.97976 0.513008 0 
5.10213 0.513008 0 6.57433 0.513008 0 8.50551 0.513008 0 
11.0394 0.513008 0 14.3622 0.513008 0 -0.0181338 0 0 
-0.0181338 0.0193874 0 -0.0152362 0.0580528 0 -0.00945663 0.0963937 0 
-0.000826776 0.134197 0 0.0105985 0.171252 0 0.0247638 0.207339 0 
0.0415906 0.242276 0 0.0609764 0.275858 0 0.0828189 0.30789 0 
0.106992 0.338205 0 0.13337 0.36663 0 0.161795 0.393008 0 
0.19211 0.417181 0 0.224142 0.439024 0 0.257724 0.458409 0 
0.292661 0.475236 0 0.328661 0.48937 0 0.365441 0.500732 0 
0.402803 0.509299 0 0.440572 0.515039 0 0.478543 0.517961 0 
0.516542 0.51874 0 0.560303 0.518803 0 0.617472 0.518835 0 
0.69226 0.51885 0 0.790181 0.518858 0 0.91848 0.518858 0 
1.08654 0.518858 0 1.30677 0.518858 0 1.59575 0.518858 0 
1.9748 0.518858 0 2.47197 0.518858 0 3.12417 0.518858 0 
3.97976 0.518858 0 5.10213 0.518858 0 6.57433 0.518858 0 
8.50551 0.518858 0 11.0394 0.518858 0 14.3622 0.518858 0 
-0.0253701 0 0 -0.0253701 0.0196575 0 -0.0224252 0.0588638 0 
-0.0165669 0.0977402 0 -0.00781888 0.136071 0 0.00377169 0.173638 0 
0.0181339 0.210236 0 0.035189 0.245661 0 0.0548504 0.279709 0 
0.0769921 0.312189 0 0.101512 0.342929 0 0.128252 0.371748 0 
0.157071 0.398488 0 0.187811 0.423008 0 0.220291 0.44515 0 
0.254339 0.464811 0 0.289764 0.481866 0 0.326228 0.496189 0 
0.363425 0.507685 0 0.40115 0.516346 0 0.439234 0.522157 0 
0.477478 0.525126 0 0.515712 0.525945 0 0.559679 0.526024 0 
0.617024 0.526071 0 0.691961 0.526094 0 0.790016 0.526102 0 
0.918425 0.526102 0 1.08654 0.526102 0 1.30677 0.526102 0 
1.59575 0.526102 0 1.9748 0.526102 0 2.47197 0.526102 0 
3.12417 0.526102 0 3.97976 0.526102 0 5.10213 0.526102 0 
6.57433 0.526102 0 8.50551 0.526102 0 11.0394 0.526102 0 
14.3622 0.526102 0 -0.0343228 0 0 -0.0343228 0.0199929 0 
-0.0313385 0.0598669 0 -0.0253779 0.0994094 0 -0.0164803 0.138386 0 
-0.00469285 0.176598 0 0.00991341 0.213819 0 0.0272678 0.24985 0 
0.0472599 0.284472 0 0.0697874 0.317512 0 0.0947166 0.34878 0 
0.121913 0.378087 0 0.15122 0.405283 0 0.182488 0.430213 0 
0.215528 0.45274 0 0.25015 0.472732 0 0.286181 0.490087 0 
0.323228 0.504638 0 0.360929 0.516299 0 0.399102 0.525079 0 
0.437577 0.530976 0 0.476159 0.534 0 0.514686 0.534858 0 
0.558905 0.534961 0 0.616465 0.535031 0 0.691591 0.535063 0 
0.789811 0.535071 0 0.918362 0.535071 0 1.08654 0.535071 0 
1.30677 0.535071 0 1.59575 0.535071 0 1.9748 0.535071 0 
2.47197 0.535071 0 3.12417 0.535071 0 3.97976 0.535071 0 
5.10213 0.535071 0 6.57433 0.535071 0 8.50551 0.535071 0 
11.0394 0.535071 0 14.3622 0.535071 0 -0.0454094 0 0 
-0.0454094 0.0204079 0 -0.0423622 0.0611094 0 -0.0362756 0.101472 0 
-0.0271968 0.14126 0 -0.0151653 0.180268 0 -0.000251949 0.21826 0 
0.0174567 0.255031 0 0.0378662 0.290378 0 0.0608583 0.324102 0 
0.0863071 0.356016 0 0.114063 0.385937 0 0.143984 0.413693 0 
0.175898 0.439142 0 0.209622 0.462134 0 0.244969 0.482543 0 
0.28174 0.500252 0 0.319504 0.515094 0 0.357843 0.526961 0 
0.396575 0.535882 0 0.435525 0.541882 0 0.474526 0.544984 0 
0.513415 0.54589 0 0.557947 0.546031 0 0.61578 0.546118 0 
0.691142 0.546165 0 0.789559 0.546173 0 0.918283 0.546173 0 
1.08654 0.546173 0 1.30677 0.546173 0 1.59575 0.546173 0 
1.9748 0.546173 0 2.47197 0.546173 0 3.12417 0.546173 0 
3.97976 0.546173 0 5.10213 0.546173 0 6.57433 0.546173 0 
8.50551 0.546173 0 11.0394 0.546173 0 14.3622 0.546173 0 
-0.0591338 0 0 -0.0591338 0.0209213 0 -0.0560078 0.0626472 0 
-0.0497716 0.104024 0 -0.0404646 0.144819 0 -0.0281339 0.184803 0 
-0.0128425 0.223748 0 0.00531498 0.261449 0 0.0262362 0.297685 0 
0.0498032 0.33226 0 0.0758898 0.364976 0 0.104354 0.395646 0 
0.135024 0.42411 0 0.16774 0.450197 0 0.202315 0.473764 0 
0.238551 0.494685 0 0.276252 0.512842 0 0.314906 0.528039 0 
0.354024 0.540157 0 0.393433 0.549268 0 0.432985 0.555394 0 
0.472504 0.558583 0 0.511841 0.559551 0 0.556761 0.559732 0 
0.614929 0.55985 0 0.690575 0.559905 0 0.789244 0.559921 0 
0.918189 0.559921 0 1.08654 0.559921 0 1.30677 0.559921 0 
1.59575 0.559921 0 1.9748 0.559921 0 2.47197 0.559921 0 
3.12417 0.559921 0 3.97976 0.559921 0 5.10213 0.559921 0 
6.57433 0.559921 0 8.50551 0.559921 0 11.0394 0.559921 0 
14.3622 0.559921 0 -0.0761338 0 0 -0.0761338 0.0215575 0 
-0.0729133 0.0645512 0 -0.0664803 0.107181 0 -0.0568898 0.14922 0 
-0.044181 0.190417 0 -0.028433 0.230551 0 -0.00972438 0.269394 0 
0.0118347 0.306732 0 0.0361181 0.342354 0 0.063 0.376063 0 
0.0923308 0.407669 0 0.123937 0.437 0 0.157646 0.463882 0 
0.193268 0.488165 0 0.230606 0.509724 0 0.269449 0.528433 0 
0.309205 0.544063 0 0.349291 0.556496 0 0.389551 0.565827 0 
0.429841 0.572118 0 0.470001 0.575417 0 0.509893 0.576465 0 
0.555294 0.576701 0 0.613874 0.576842 0 0.689882 0.576921 0 
0.788858 0.576937 0 0.918063 0.576937 0 1.08654 0.576937 0 
1.30677 0.576937 0 1.59575 0.576937 0 1.9748 0.576937 0 
2.47197 0.576937 0 3.12417 0.576937 0 3.97976 0.576937 0 
5.10213 0.576937 0 6.57433 0.576937 0 8.50551 0.576937 0 
11.0394 0.576937 0 14.3622 0.576937 0 -0.0971732 0 0 
-0.0971732 0.0223449 0 -0.0938346 0.0669087 0 -0.0871732 0.111102 0 
-0.0772283 0.154669 0 -0.0640551 0.19737 0 -0.0477244 0.238968 0 
-0.0283386 0.279236 0 -0.00599205 0.317937 0 0.0191811 0.354858 0 
0.0470473 0.389803 0 0.0774409 0.422559 0 0.110197 0.452953 0 
0.145142 0.480819 0 0.182063 0.505992 0 0.220764 0.528339 0 
0.261032 0.547724 0 0.302142 0.563898 0 0.343433 0.576732 0 
0.384748 0.586339 0 0.425948 0.592819 0 0.466902 0.59626 0 
0.507482 0.597409 0 0.553476 0.597701 0 0.612575 0.59789 0 
0.689024 0.597984 0 0.788378 0.598008 0 0.917913 0.598008 0 
1.08654 0.598008 0 1.30677 0.598008 0 1.59575 0.598008 0 
1.9748 0.598008 0 2.47197 0.598008 0 3.12417 0.598008 0 
3.97976 0.598008 0 5.10213 0.598008 0 6.57433 0.598008 0 
8.50551 0.598008 0 11.0394 0.598008 0 14.3622 0.598008 0 
-0.12322 0 0 -0.12322 0.0233189 0 -0.119732 0.0698268 0 
-0.112779 0.115945 0 -0.102402 0.161417 0 -0.0886535 0.205976 0 
[...]
POINT_DATA 40960
SCALARS Density float
LOOKUP_TABLE default
2.171 2.171 2.1791 2.1651 2.1523 2.1206 2.0832 2.032 1.9742 
1.9066 1.8341 1.7511 1.6659 1.5716 1.4769 1.3758 1.2728 1.1679 
1.0609 0.95795 0.86119 0.7758 0.74255 0.75364 0.7654 0.77999 0.77923 
0.76438 0.73957 0.70754 0.66064 0.60368 0.55002 0.51283 0.49022 0.47156 
0.45067 0.44102 0.41495 0.41495 2.171 2.171 2.1791 2.1651 2.1523 
2.1206 2.0832 2.032 1.9742 1.9066 1.8341 1.7511 1.6659 1.5716 
1.4769 1.3758 1.2728 1.1679 1.0609 0.95795 0.86119 0.7758 0.74255 
0.75364 0.7654 0.77999 0.77923 0.76438 0.73957 0.70754 0.66064 0.60368 
0.55002 0.51283 0.49022 0.47156 0.45067 0.44102 0.41495 0.41495 2.1512 
2.1512 2.1562 2.1522 2.1333 2.1036 2.0692 2.0213 1.9669 1.9026 
1.8331 1.7531 1.6706 1.579 1.4867 1.3879 1.287 1.1842 1.0791 
0.9779 0.8827 0.79766 0.76362 0.77338 0.78191 0.79303 0.78936 0.77003 
0.74423 0.71328 0.66556 0.60781 0.55315 0.515 0.49199 0.47275 0.45144 
0.44144 0.41521 0.41521 2.1677 2.1677 2.1735 2.1585 2.1487 2.119 
2.0838 2.0347 1.9791 1.9137 1.8432 1.7623 1.6792 1.587 1.4943 
1.3951 1.2939 1.1909 1.0857 0.98446 0.8892 0.8031 0.76673 0.77716 
0.78807 0.80056 0.79753 0.78123 0.75606 0.71675 0.66927 0.61154 0.55659 
0.51845 0.49488 0.4758 0.45339 0.44377 0.41674 0.41674 2.1502 2.1502 
2.1556 2.1451 2.1328 2.1046 2.0713 2.0244 1.971 1.908 1.8397 
1.761 1.68 1.5899 1.4992 1.4019 1.3023 1.2007 1.0969 0.99681 
0.90241 0.81549 0.77457 0.7822 0.79303 0.80527 0.80271 0.78694 0.76197 
0.71936 0.67085 0.61341 0.55895 0.52021 0.49766 0.4769 0.45424 0.44319 
0.41672 0.41672 2.1507 2.1507 2.1572 2.1469 2.1356 2.108 2.0757 
2.0299 1.9779 1.9159 1.8487 1.7712 1.6911 1.6022 1.5123 1.4158 
1.3169 1.216 1.1129 1.0135 0.91972 0.83122 0.78383 0.78755 0.79869 
0.81116 0.80863 0.79217 0.76769 0.72497 0.6754 0.61795 0.5629 0.52465 
0.50101 0.48114 0.45582 0.44577 0.41743 0.41743 2.1529 2.1529 2.1615 
2.1526 2.1416 2.1154 2.0842 2.0399 1.9891 1.929 1.8632 1.7868 
1.7078 1.6199 1.5309 1.4354 1.3375 1.237 1.1348 1.0355 0.94252 
0.85266 0.79645 0.79225 0.80208 0.81475 0.81216 0.79597 0.77157 0.72814 
0.67951 0.62109 0.56656 0.52709 0.50557 0.48317 0.45871 0.44603 0.41898 
0.41898 2.1753 2.1753 2.1877 2.1792 2.1687 2.1425 2.1114 2.0676 
2.0174 1.9581 1.8933 1.8179 1.7394 1.6519 1.5628 1.467 1.3687 
1.2676 1.1652 1.0655 0.97339 0.88227 0.81626 0.79988 0.8064 0.81766 
0.81456 0.79877 0.7748 0.73125 0.68264 0.6246 0.56979 0.53179 0.50817 
0.48804 0.46014 0.44943 0.41931 0.41931 2.2042 2.2042 2.22 2.2131 
2.2038 2.1789 2.1488 2.1062 2.0564 1.9987 1.9353 1.8604 1.7826 
1.6955 1.6068 1.511 1.4128 1.3109 1.2084 1.1068 1.0154 0.92379 
0.84851 0.81484 0.8146 0.82329 0.81774 0.80104 0.77676 0.73284 0.686 
0.62737 0.5742 0.53379 0.51482 0.49103 0.46424 0.44957 0.42179 0.42179 
2.2269 2.2269 2.2468 2.2417 2.2343 2.2115 2.1838 2.1443 2.0973 
2.0432 1.9834 1.9115 1.836 1.7507 1.6634 1.5678 1.4706 1.3686 
1.2652 1.1621 1.0725 0.98088 0.89776 0.84121 0.83006 0.83314 0.82354 
0.80409 0.7787 0.73285 0.68776 0.63085 0.57699 0.54045 0.5173 0.49736 
0.46582 0.45369 0.42185 0.42185 2.2251 2.2251 2.2438 2.2395 2.2346 
2.2154 2.1921 2.1577 2.1161 2.0667 2.0131 1.949 1.8815 1.8026 
1.7218 1.6295 1.5372 1.4373 1.3366 1.2329 1.145 1.0544 0.96829 
0.88585 0.85852 0.85398 0.83703 0.8119 0.78294 0.72726 0.69286 0.63404 
0.57872 0.5406 0.52313 0.49992 0.47141 0.4542 0.42523 0.42523 2.1551 
2.1551 2.1725 2.1708 2.1705 2.1574 2.1412 2.1154 2.0833 2.0429 
2.0001 1.9488 1.8943 1.8269 1.7584 1.6777 1.5966 1.5068 1.4073 
1.3048 1.2302 1.1405 1.051 0.92681 0.90163 0.8848 0.85825 0.82381 
0.78977 0.73151 0.69321 0.63475 0.5801 0.5442 0.52225 0.50722 0.4727 
0.45959 0.42518 0.42518 1.9849 1.9849 2.0012 2.0033 2.0086 2.0033 
1.9967 1.9823 1.9637 1.9342 1.9065 1.8723 1.835 1.787 1.7368 
1.6764 1.6145 1.5421 1.4541 1.3721 1.3055 1.2233 1.1267 1.0291 
0.93863 0.89755 0.86046 0.81741 0.77165 0.7401 0.68694 0.63519 0.58137 
0.54231 0.52515 0.5069 0.47833 0.4596 0.42962 0.42962 1.738 1.738 
1.7534 1.7591 1.7692 1.7712 1.7733 1.7696 1.7639 1.7476 1.7351 
1.719 1.6993 1.6724 1.6414 1.6035 1.5621 1.5117 1.4501 1.3925 
1.3358 1.2751 1.1929 1.1039 1.0013 0.94444 0.90502 0.85217 0.79836 
0.74982 0.68831 0.63405 0.57998 0.54434 0.52096 0.50956 0.47853 0.46582 
0.42947 0.42947 1.4606 1.4606 1.4748 1.4823 1.4946 1.5013 1.5091 
1.5132 1.5172 1.5135 1.5141 1.5129 1.5102 1.5032 1.4937 1.4756 
1.456 1.4258 1.3911 1.35 1.3201 1.2858 1.2285 1.147 1.0463 
0.96945 0.9252 0.86873 0.81097 0.75625 0.69017 0.63186 0.57956 0.54144 
0.52592 0.5053 0.48151 0.4638 0.43441 0.43441 1.2028 1.2028 1.2152 
1.2232 1.2356 1.2445 1.2552 1.2641 1.2738 1.2796 1.2881 1.296 
1.3037 1.3073 1.3114 1.3109 1.3114 1.3001 1.2868 1.2647 1.2594 
1.2452 1.2204 1.1709 1.056 0.97889 0.92785 0.87121 0.82747 0.76173 
0.70184 0.63226 0.57895 0.54279 0.5227 0.51068 0.47655 0.46694 0.43282 
0.43282 0.97034 0.97034 0.98017 0.98698 0.99803 1.0075 1.0196 1.0314 
1.0451 1.0584 1.0738 1.0891 1.1065 1.1217 1.1387 1.149 1.1618 
1.165 1.1659 1.162 1.1712 1.1694 1.1695 1.126 1.0784 1.0136 
0.92484 0.88096 0.83039 0.76668 0.70716 0.63311 0.58027 0.54064 0.52617 
0.5082 0.48091 0.4641 0.4375 0.4375 0.77232 0.77232 0.78037 0.78682 
0.79684 0.80685 0.81946 0.83262 0.84783 0.86379 0.88168 0.89999 0.92016 
0.93983 0.96329 0.98345 1.0068 1.0208 1.0378 1.0496 1.0682 1.0779 
1.0916 1.0675 1.0447 0.99768 0.96057 0.88172 0.82781 0.77371 0.71441 
0.63996 0.58331 0.54365 0.52289 0.51417 0.47765 0.46774 0.43422 0.43422 
0.60784 0.60784 0.61438 0.62036 0.62921 0.63879 0.65104 0.6643 0.68032 
0.69747 0.71747 0.73819 0.76255 0.7865 0.81347 0.83834 0.86498 0.88599 
0.90849 0.9296 0.95102 0.96776 0.98493 0.97782 0.9747 0.95193 0.93482 
0.90209 0.82804 0.78698 0.72197 0.64587 0.58851 0.54552 0.5275 0.51311 
0.48383 0.4646 0.43972 0.43972 0.55806 0.55806 0.56069 0.56356 0.5669 
0.56972 0.57411 0.57847 0.58501 0.59265 0.60348 0.616 0.63154 0.64987 
0.67283 0.69803 0.72849 0.75751 0.78668 0.81356 0.84061 0.86617 0.88583 
0.89631 0.90768 0.90041 0.89517 0.87777 0.85405 0.78893 0.72223 0.65637 
0.59256 0.54859 0.52336 0.51916 0.48252 0.47014 0.43634 0.43634 0.55507 
0.55507 0.55626 0.55598 0.55759 0.55797 0.55979 0.56075 0.56251 0.56419 
0.56663 0.57022 0.57448 0.58029 0.58985 0.6017 0.61987 0.6403 0.66334 
0.68719 0.70978 0.736 0.75956 0.78611 0.81486 0.83535 0.85269 0.85667 
0.845 0.81441 0.73235 0.66494 0.60037 0.55198 0.52413 0.51395 0.48857 
0.46855 0.4432 0.4432 0.53654 0.53654 0.53661 0.53286 0.53189 0.52904 
0.5278 0.52587 0.52509 0.52472 0.52615 0.52741 0.53075 0.53375 0.53878 
0.54506 0.55482 0.56761 0.58305 0.60205 0.62061 0.64026 0.65705 0.67712 
0.70123 0.73002 0.76394 0.79597 0.8104 0.79857 0.7644 0.68541 0.6099 
0.55608 0.51972 0.51568 0.48055 0.47141 0.43852 0.43852 0.62855 0.62855 
0.62687 0.61887 0.61212 0.60218 0.59189 0.58007 0.56738 0.55409 0.54263 
0.52977 0.51861 0.50969 0.50194 0.49825 0.49794 0.50217 0.50974 0.52151 
0.53477 0.55303 0.56963 0.5906 0.61279 0.63936 0.6717 0.71198 0.74683 
0.76785 0.75816 0.72192 0.63936 0.57147 0.52314 0.5101 0.48281 0.46426 
0.44551 0.44551 0.76957 0.76957 0.76739 0.76053 0.7542 0.7449 0.7338 
0.72064 0.7052 0.68709 0.66911 0.64928 0.62639 0.60453 0.5814 0.55852 
0.53633 0.51715 0.5027 0.49292 0.48546 0.48598 0.48783 0.49745 0.50997 
0.53211 0.55762 0.596 0.63536 0.68555 0.73066 0.72973 0.68807 0.60356 
0.543 0.51805 0.47585 0.46914 0.43898 0.43898 0.72827 0.72827 0.72811 
0.72723 0.72861 0.72979 0.73166 0.73303 0.73333 0.73214 0.72986 0.72751 
0.71992 0.71082 0.69641 0.67695 0.65004 0.62328 0.59894 0.57874 0.55884 
0.54347 0.5271 0.51771 0.50357 0.5 0.49401 0.50381 0.51936 0.55846 
0.61183 0.67477 0.69684 0.65204 0.58038 0.52739 0.48668 0.46751 0.45257 
0.45257 0.56348 0.56348 0.56459 0.56611 0.57102 0.57625 0.5836 0.59174 
0.60105 0.60965 0.62049 0.63247 0.64312 0.65585 0.6681 0.67802 0.68374 
0.68284 0.67727 0.66834 0.65512 0.64 0.62355 0.60844 0.59015 0.57096 
0.55331 0.53633 0.52224 0.51369 0.51236 0.54875 0.62049 0.65528 0.62502 
0.54123 0.48782 0.47522 0.44266 0.44266 0.43911 0.43911 0.44023 0.4413 
0.4451 0.44863 0.45398 0.459 0.46724 0.47462 0.48415 0.49496 0.50638 
0.52125 0.53899 0.55595 0.57677 0.59504 0.61163 0.62689 0.6385 0.6453 
0.65166 0.65328 0.65297 0.64563 0.63642 0.61685 0.59363 0.57144 0.54025 
0.52715 0.50876 0.57502 0.6124 0.60112 0.50812 0.48079 0.46823 0.46823 
0.4049 0.4049 0.40507 0.40537 0.40535 0.40566 0.40666 0.40764 0.40941 
0.41147 0.4142 0.41776 0.42268 0.42787 0.43683 0.44671 0.46117 0.47636 
0.49353 0.51203 0.53038 0.54621 0.56239 0.57415 0.58962 0.60019 0.6149 
0.62179 0.62849 0.62602 0.61396 0.58156 0.54445 0.50631 0.52666 0.58168 
0.54965 0.48523 0.44777 0.44777 0.4036 0.4036 0.40361 0.40358 0.40378 
0.40381 0.40385 0.40398 0.40399 0.40421 0.40429 0.40448 0.40508 0.40547 
0.40655 0.40817 0.41089 0.41516 0.42015 0.42744 0.43517 0.44563 0.45483 
0.46784 0.47935 0.49737 0.51189 0.53605 0.54884 0.5717 0.58048 0.60103 
0.59171 0.57198 0.5008 0.5109 0.52305 0.53397 0.49606 0.49606 0.39666 
0.39666 0.39684 0.39688 0.39716 0.39741 0.39765 0.398 0.3983 0.3988 
0.39923 0.39982 0.4003 0.401 0.40165 0.40242 0.40334 0.40443 0.40529 
0.40673 0.40788 0.41016 0.41195 0.41547 0.41846 0.42475 0.43027 0.44298 
0.45293 0.46972 0.48949 0.51731 0.54352 0.56374 0.56543 0.51651 0.45053 
0.46448 0.46672 0.46672 0.39515 0.39515 0.39556 0.39562 0.39578 0.39597 
0.39609 0.39633 0.39643 0.39675 0.39689 0.39738 0.39758 0.3983 0.39858 
0.39968 0.39999 0.4018 0.40164 0.40439 0.40296 0.40757 0.40374 0.41126 
0.40442 0.41572 0.4061 0.42194 0.41048 0.43038 0.42053 0.45343 0.45455 
0.51351 0.52192 0.5827 0.55543 0.57309 0.59244 0.59244 0.39515 0.39515 
0.39556 0.39562 0.39578 0.39597 0.39609 0.39633 0.39643 0.39675 0.39689 
0.39738 0.39758 0.3983 0.39858 0.39968 0.39999 0.4018 0.40164 0.40439 
0.40296 0.40757 0.40374 0.41126 0.40442 0.41572 0.4061 0.42194 0.41048 
0.43038 0.42053 0.45343 0.45455 0.51351 0.52192 0.5827 0.55543 0.57309 
0.59244 0.59244 2.171 2.171 2.1791 2.1651 2.1523 2.1206 2.0832 
2.032 1.9742 1.9066 1.8341 1.7511 1.6659 1.5716 1.4769 1.3758 
1.2728 1.1679 1.0609 0.95795 0.86119 0.7758 0.74255 0.75364 0.7654 
0.77999 0.77923 0.76438 0.73957 0.70754 0.66064 0.60368 0.55002 0.51283 
0.49022 0.47156 0.45067 0.44102 0.41495 0.41495 2.1699 2.171 2.1791 
2.1651 2.1523 2.1206 2.0832 2.032 1.9742 1.9066 1.8341 1.7511 
1.6659 1.5716 1.4769 1.3758 1.2728 1.1679 1.0609 0.95795 0.86119 
0.7758 0.74255 0.75364 0.7654 0.77999 0.77923 0.76438 0.73957 0.70754 
0.66064 0.60368 0.55002 0.51283 0.49022 0.47156 0.45067 0.44102 0.41495 
0.41482 2.1513 2.1512 2.1562 2.1522 2.1333 2.1036 2.0692 2.0213 
1.9669 1.9026 1.8331 1.7531 1.6706 1.579 1.4867 1.3879 1.287 
1.1842 1.0791 0.9779 0.8827 0.79766 0.76362 0.77338 0.78191 0.79303 
0.78936 0.77003 0.74423 0.71328 0.66556 0.60781 0.55315 0.515 0.49199 
0.47275 0.45144 0.44144 0.41521 0.41526 2.1658 2.1677 2.1735 2.1585 
2.1487 2.119 2.0838 2.0347 1.9791 1.9137 1.8432 1.7623 1.6792 
1.587 1.4943 1.3951 1.2939 1.1909 1.0857 0.98446 0.8892 0.8031 
0.76673 0.77716 0.78807 0.80056 0.79753 0.78123 0.75606 0.71675 0.66927 
0.61154 0.55659 0.51845 0.49488 0.4758 0.45339 0.44377 0.41674 0.41666 
2.1492 2.1502 2.1556 2.1451 2.1328 2.1046 2.0713 2.0244 1.971 
1.908 1.8397 1.761 1.68 1.5899 1.4992 1.4019 1.3023 1.2007 
1.0969 0.99681 0.90241 0.81549 0.77457 0.7822 0.79303 0.80527 0.80271 
0.78694 0.76197 0.71936 0.67085 0.61341 0.55895 0.52021 0.49766 0.4769 
0.45424 0.44319 0.41672 0.41673 2.1495 2.1507 2.1572 2.1469 2.1356 
2.108 2.0757 2.0299 1.9779 1.9159 1.8487 1.7712 1.6911 1.6022 
1.5123 1.4158 1.3169 1.216 1.1129 1.0135 0.91972 0.83122 0.78383 
0.78755 0.79869 0.81116 0.80863 0.79217 0.76769 0.72497 0.6754 0.61795 
0.5629 0.52465 0.50101 0.48114 0.45582 0.44577 0.41743 0.41744 2.1517 
2.1529 2.1615 2.1526 2.1416 2.1154 2.0842 2.0399 1.9891 1.929 
1.8632 1.7868 1.7078 1.6199 1.5309 1.4354 1.3375 1.237 1.1348 
1.0355 0.94252 0.85266 0.79645 0.79225 0.80208 0.81475 0.81216 0.79597 
0.77157 0.72814 0.67951 0.62109 0.56656 0.52709 0.50557 0.48317 0.45871 
0.44603 0.41898 0.41898 2.1741 2.1753 2.1877 2.1792 2.1687 2.1425 
2.1114 2.0676 2.0174 1.9581 1.8933 1.8179 1.7394 1.6519 1.5628 
1.467 1.3687 1.2676 1.1652 1.0655 0.97339 0.88227 0.81626 0.79988 
0.8064 0.81766 0.81456 0.79877 0.7748 0.73125 0.68264 0.6246 0.56979 
0.53179 0.50817 0.48804 0.46014 0.44943 0.41931 0.41932 2.203 2.2042 
2.22 2.2131 2.2038 2.1789 2.1488 2.1062 2.0564 1.9987 1.9353 
1.8604 1.7826 1.6955 1.6068 1.511 1.4128 1.3109 1.2084 1.1068 
1.0154 0.92379 0.84851 0.81484 0.8146 0.82329 0.81774 0.80104 0.77676 
0.73284 0.686 0.62737 0.5742 0.53379 0.51482 0.49103 0.46424 0.44957 
0.42179 0.4218 2.2258 2.2269 2.2468 2.2417 2.2343 2.2115 2.1838 
2.1443 2.0973 2.0432 1.9834 1.9115 1.836 1.7507 1.6634 1.5678 
1.4706 1.3686 1.2652 1.1621 1.0725 0.98088 0.89776 0.84121 0.83006 
0.83314 0.82354 0.80409 0.7787 0.73285 0.68776 0.63085 0.57699 0.54045 
0.5173 0.49736 0.46582 0.45369 0.42185 0.42186 2.2238 2.2251 2.2438 
2.2395 2.2346 2.2154 2.1921 2.1577 2.1161 2.0667 2.0131 1.949 
1.8815 1.8026 1.7218 1.6295 1.5372 1.4373 1.3366 1.2329 1.145 
1.0544 0.96829 0.88585 0.85852 0.85398 0.83703 0.8119 0.78294 0.72726 
0.69286 0.63404 0.57872 0.5406 0.52313 0.49992 0.47141 0.4542 0.42523 
0.42524 2.1539 2.1551 2.1725 2.1708 2.1705 2.1574 2.1412 2.1154 
2.0833 2.0429 2.0001 1.9488 1.8943 1.8269 1.7584 1.6777 1.5966 
1.5068 1.4073 1.3048 1.2302 1.1405 1.051 0.92681 0.90163 0.8848 
0.85825 0.82381 0.78977 0.73151 0.69321 0.63475 0.5801 0.5442 0.52225 
0.50722 0.4727 0.45959 0.42518 0.4252 1.984 1.9849 2.0012 2.0033 
2.0086 2.0033 1.9967 1.9823 1.9637 1.9342 1.9065 1.8723 1.835 
1.787 1.7368 1.6764 1.6145 1.5421 1.4541 1.3721 1.3055 1.2233 
1.1267 1.0291 0.93863 0.89755 0.86046 0.81741 0.77165 0.7401 0.68694 
0.63519 0.58137 0.54231 0.52515 0.5069 0.47833 0.4596 0.42962 0.42963 
1.7374 1.738 1.7534 1.7591 1.7692 1.7712 1.7733 1.7696 1.7639 
1.7476 1.7351 1.719 1.6993 1.6724 1.6414 1.6035 1.5621 1.5117 
1.4501 1.3925 1.3358 1.2751 1.1929 1.1039 1.0013 0.94444 0.90502 
0.85217 0.79836 0.74982 0.68831 0.63405 0.57998 0.54434 0.52096 0.50956 
0.47853 0.46582 0.42947 0.42948 1.4603 1.4606 1.4748 1.4823 1.4946 
1.5013 1.5091 1.5132 1.5172 1.5135 1.5141 1.5129 1.5102 1.5032 
1.4937 1.4756 1.456 1.4258 1.3911 1.35 1.3201 1.2858 1.2285 
1.147 1.0463 0.96945 0.9252 0.86873 0.81097 0.75625 0.69017 0.63186 
0.57956 0.54144 0.52592 0.5053 0.48151 0.4638 0.43441 0.43442 1.2026 
1.2028 1.2152 1.2232 1.2356 1.2445 1.2552 1.2641 1.2738 1.2796 
1.2881 1.296 1.3037 1.3073 1.3114 1.3109 1.3114 1.3001 1.2868 
1.2647 1.2594 1.2452 1.2204 1.1709 1.056 0.97889 0.92785 0.87121 
0.82747 0.76173 0.70184 0.63226 0.57895 0.54279 0.5227 0.51068 0.47655 
0.46694 0.43282 0.43283 0.97028 0.97034 0.98017 0.98698 0.99803 1.0075 
1.0196 1.0314 1.0451 1.0584 1.0738 1.0891 1.1065 1.1217 1.1387 
1.149 1.1618 1.165 1.1659 1.162 1.1712 1.1694 1.1695 1.126 
1.0784 1.0136 0.92484 0.88096 0.83039 0.76668 0.70716 0.63311 0.58027 
0.54064 0.52617 0.5082 0.48091 0.4641 0.4375 0.43751 0.7723 0.77232 
0.78037 0.78682 0.79684 0.80685 0.81946 0.83262 0.84783 0.86379 0.88168 
0.89999 0.92016 0.93983 0.96329 0.98345 1.0068 1.0208 1.0378 1.0496 
1.0682 1.0779 1.0916 1.0675 1.0447 0.99768 0.96057 0.88172 0.82781 
0.77371 0.71441 0.63996 0.58331 0.54365 0.52289 0.51417 0.47765 0.46774 
0.43422 0.43423 0.60784 0.60784 0.61438 0.62036 0.62921 0.63879 0.65104 
0.6643 0.68032 0.69747 0.71747 0.73819 0.76255 0.7865 0.81347 0.83834 
0.86498 0.88599 0.90849 0.9296 0.95102 0.96776 0.98493 0.97782 0.9747 
0.95193 0.93482 0.90209 0.82804 0.78698 0.72197 0.64587 0.58851 0.54552 
0.5275 0.51311 0.48383 0.4646 0.43972 0.43972 0.55807 0.55806 0.56069 
0.56356 0.5669 0.56972 0.57411 0.57847 0.58501 0.59265 0.60348 0.616 
0.63154 0.64987 0.67283 0.69803 0.72849 0.75751 0.78668 0.81356 0.84061 
0.86617 0.88583 0.89631 0.90768 0.90041 0.89517 0.87777 0.85405 0.78893 
0.72223 0.65637 0.59256 0.54859 0.52336 0.51916 0.48252 0.47014 0.43634 
0.43635 0.55507 0.55507 0.55626 0.55598 0.55759 0.55797 0.55979 0.56075 
0.56251 0.56419 0.56663 0.57022 0.57448 0.58029 0.58985 0.6017 0.61987 
0.6403 0.66334 0.68719 0.70978 0.736 0.75956 0.78611 0.81486 0.83535 
0.85269 0.85667 0.845 0.81441 0.73235 0.66494 0.60037 0.55198 0.52413 
0.51395 0.48857 0.46855 0.4432 0.44321 0.53653 0.53654 0.53661 0.53286 
0.53189 0.52904 0.5278 0.52587 0.52509 0.52472 0.52615 0.52741 0.53075 
0.53375 0.53878 0.54506 0.55482 0.56761 0.58305 0.60205 0.62061 0.64026 
0.65705 0.67712 0.70123 0.73002 0.76394 0.79597 0.8104 0.79857 0.7644 
0.68541 0.6099 0.55608 0.51972 0.51568 0.48055 0.47141 0.43852 0.43853 
0.62851 0.62855 0.62687 0.61887 0.61212 0.60218 0.59189 0.58007 0.56738 
0.55409 0.54263 0.52977 0.51861 0.50969 0.50194 0.49825 0.49794 0.50217 
0.50974 0.52151 0.53477 0.55303 0.56963 0.5906 0.61279 0.63936 0.6717 
0.71198 0.74683 0.76785 0.75816 0.72192 0.63936 0.57147 0.52314 0.5101 
0.48281 0.46426 0.44551 0.44551 0.76948 0.76957 0.76739 0.76053 0.7542 
0.7449 0.7338 0.72064 0.7052 0.68709 0.66911 0.64928 0.62639 0.60453 
0.5814 0.55852 0.53633 0.51715 0.5027 0.49292 0.48546 0.48598 0.48783 
0.49745 0.50997 0.53211 0.55762 0.596 0.63536 0.68555 0.73066 0.72973 
0.68807 0.60356 0.543 0.51805 0.47585 0.46914 0.43898 0.43898 0.7282 
0.72827 0.72811 0.72723 0.72861 0.72979 0.73166 0.73303 0.73333 0.73214 
0.72986 0.72751 0.71992 0.71082 0.69641 0.67695 0.65004 0.62328 0.59894 
0.57874 0.55884 0.54347 0.5271 0.51771 0.50357 0.5 0.49401 0.50381 
0.51936 0.55846 0.61183 0.67477 0.69684 0.65204 0.58038 0.52739 0.48668 
0.46751 0.45257 0.45257 0.56339 0.56348 0.56459 0.56611 0.57102 0.57625 
0.5836 0.59174 0.60105 0.60965 0.62049 0.63247 0.64312 0.65585 0.6681 
0.67802 0.68374 0.68284 0.67727 0.66834 0.65512 0.64 0.62355 0.60844 
0.59015 0.57096 0.55331 0.53633 0.52224 0.51369 0.51236 0.54875 0.62049 
0.65528 0.62502 0.54123 0.48782 0.47522 0.44266 0.44267 0.43902 0.43911 
0.44023 0.4413 0.4451 0.44863 0.45398 0.459 0.46724 0.47462 0.48415 
0.49496 0.50638 0.52125 0.53899 0.55595 0.57677 0.59504 0.61163 0.62689 
0.6385 0.6453 0.65166 0.65328 0.65297 0.64563 0.63642 0.61685 0.59363 
0.57144 0.54025 0.52715 0.50876 0.57502 0.6124 0.60112 0.50812 0.48079 
0.46823 0.46823 0.40482 0.4049 0.40507 0.40537 0.40535 0.40566 0.40666 
0.40764 0.40941 0.41147 0.4142 0.41776 0.42268 0.42787 0.43683 0.44671 
0.46117 0.47636 0.49353 0.51203 0.53038 0.54621 0.56239 0.57415 0.58962 
0.60019 0.6149 0.62179 0.62849 0.62602 0.61396 0.58156 0.54445 0.50631 
0.52666 0.58168 0.54965 0.48523 0.44777 0.44778 0.40354 0.4036 0.40361 
0.40358 0.40378 0.40381 0.40385 0.40398 0.40399 0.40421 0.40429 0.40448 
0.40508 0.40547 0.40655 0.40817 0.41089 0.41516 0.42015 0.42744 0.43517 
0.44563 0.45483 0.46784 0.47935 0.49737 0.51189 0.53605 0.54884 0.5717 
0.58048 0.60103 0.59171 0.57198 0.5008 0.5109 0.52305 0.53397 0.49606 
0.49608 0.39661 0.39666 0.39684 0.39688 0.39716 0.39741 0.39765 0.398 
0.3983 0.3988 0.39923 0.39982 0.4003 0.401 0.40165 0.40242 0.40334 
0.40443 0.40529 0.40673 0.40788 0.41016 0.41195 0.41547 0.41846 0.42475 
0.43027 0.44298 0.45293 0.46972 0.48949 0.51731 0.54352 0.56374 0.56543 
0.51651 0.45053 0.46448 0.46672 0.46671 0.39511 0.39515 0.39556 0.39562 
0.39578 0.39597 0.39609 0.39633 0.39643 0.39675 0.39689 0.39738 0.39758 
0.3983 0.39858 0.39968 0.39999 0.4018 0.40164 0.40439 0.40296 0.40757 
0.40374 0.41126 0.40442 0.41572 0.4061 0.42194 0.41048 0.43038 0.42053 
0.45343 0.45455 0.51351 0.52192 0.5827 0.55543 0.57309 0.59244 0.59243 
0.36058 0.36058 0.36058 0.36058 0.36058 0.36058 0.36058 0.36058 0.36058 
0.36058 0.36058 0.36058 0.36058 0.36058 0.36058 0.36058 0.36058 0.36058 
0.36058 0.36058 0.36058 0.36058 0.36058 0.36058 0.36058 0.36058 0.36058 
0.36058 0.36058 0.36058 0.36058 0.36058 0.36058 0.36058 0.36058 0.36058 
0.36058 0.36058 0.36058 0.36058 2.1684 2.1684 2.1754 2.1631 2.1505 
2.1197 2.0836 2.0342 1.978 1.9121 1.8411 1.7596 1.6756 1.5826 
1.4889 1.3887 1.2866 1.1826 1.0762 0.97349 0.87699 0.79167 0.75886 