# vtk DataFile Version 4.1
vtk output
ASCII
DATASET STRUCTURED_GRID
FIELD FieldData 1
Properties 1 4 float
0 0 0 0 
DIMENSIONS 57 33 25
POINTS 47025 float
2.667 -3.77476 23.8329 2.94346 -3.74825 23.6656 3.21986 -3.72175 23.4982 
3.50007 -3.70204 23.3738 3.9116 -3.72708 23.5319 4.1656 -3.69529 23.3312 
4.35445 -3.70777 23.4099 4.65275 -3.72747 23.5343 4.95099 -3.74717 23.6587 
5.3086 -3.77079 23.8078 5.6388 -3.739 23.6071 5.80443 -3.75508 23.7087 
6.07929 -3.78177 23.8772 6.35411 -3.80845 24.0457 6.62889 -3.83513 24.2141 
6.90363 -3.86181 24.3825 7.1626 -3.89134 24.569 7.37212 -3.92986 24.8122 
7.58163 -3.96837 25.0553 7.79111 -4.00687 25.2984 8.128 -4.06879 25.6894 
8.3058 -4.04893 25.5639 8.45331 -4.07678 25.7398 8.65946 -4.1157 25.9855 
8.86561 -4.15462 26.2313 9.07175 -4.19354 26.477 9.27788 -4.23246 26.7227 
9.48401 -4.27137 26.9684 9.779 -4.32707 27.3201 10.0076 -4.31117 27.2197 
10.1514 -4.34444 27.4297 10.3325 -4.3863 27.694 10.5135 -4.42816 27.9584 
10.6945 -4.47003 28.2227 10.8756 -4.5119 28.487 11.0567 -4.55377 28.7514 
11.2579 -4.59289 28.9984 11.4981 -4.62672 29.212 11.7383 -4.66054 29.4255 
12.192 -4.72441 29.8288 12.3698 -4.70057 29.6783 12.4517 -4.71541 29.772 
12.6631 -4.75369 30.0137 12.8745 -4.79198 30.2554 13.0859 -4.83028 30.4972 
13.2973 -4.86858 30.739 13.5776 -4.89244 30.8897 13.8728 -4.91317 31.0206 
14.1681 -4.93391 31.1515 14.5796 -4.96282 31.334 14.732 -4.92706 31.1082 
14.96 -4.94132 31.1983 15.2608 -4.96014 31.3171 15.5616 -4.97897 31.436 
15.8625 -4.9978 31.5549 16.1857 -4.99858 31.5598 16.51 -4.99858 31.5598 
2.667 -3.5406 23.8688 2.95309 -3.51863 23.6948 3.24382 -3.49921 23.5215 
3.55069 -3.48789 23.4266 3.9116 -3.49588 23.5673 4.1656 -3.46606 23.3663 
4.40602 -3.48054 23.4668 4.6864 -3.49776 23.5839 4.98426 -3.51631 23.7083 
5.3086 -3.53688 23.8437 5.6388 -3.50706 23.6427 5.85324 -3.52803 23.7741 
6.10055 -3.5523 23.9257 6.35966 -3.57776 24.0845 6.62254 -3.60383 24.2456 
6.88452 -3.63074 24.406 7.13768 -3.65999 24.5861 7.37272 -3.69366 24.8491 
7.60449 -3.72985 25.119 7.84529 -3.76899 25.3993 8.128 -3.8164 25.7281 
8.3058 -3.79776 25.6025 8.48992 -3.8292 25.8224 8.68672 -3.86339 26.0575 
8.89034 -3.89915 26.3006 9.09827 -3.93597 26.5488 9.31087 -3.9739 26.8026 
9.5321 -4.0137 27.0666 9.779 -4.05865 27.3612 10.0076 -4.04374 27.2607 
10.1763 -4.07504 27.5082 10.3523 -4.10882 27.7661 10.5343 -4.14442 28.0328 
10.722 -4.18119 28.3078 10.9166 -4.21888 28.593 11.1201 -4.25807 28.8763 
11.3394 -4.29766 29.1178 11.5822 -4.33733 29.3328 11.8533 -4.37966 29.5732 
12.192 -4.43134 29.8737 12.3698 -4.40898 29.723 12.541 -4.4341 29.9196 
12.7375 -4.46347 30.1453 12.9481 -4.49466 30.3872 13.1697 -4.52612 30.6419 
13.4056 -4.55614 30.8463 13.6672 -4.58191 30.9779 13.9471 -4.6056 31.1014 
14.2453 -4.62919 31.2333 14.5796 -4.65496 31.3812 14.732 -4.62142 31.1551 
14.9992 -4.63506 31.2611 15.2868 -4.64978 31.3752 15.583 -4.66425 31.4928 
15.8851 -4.67683 31.6043 16.1959 -4.6836 31.6081 16.51 -4.6885 31.6074 
2.667 -3.3061 23.9024 2.96162 -3.28827 23.7226 3.2617 -3.2733 23.5458 
3.57501 -3.26437 23.4683 3.9116 -3.26434 23.6005 4.1656 -3.2365 23.3992 
4.42865 -3.25109 23.5093 4.70831 -3.26704 23.6263 5.00178 -3.28419 23.749 
5.3086 -3.30262 23.8773 5.6388 -3.27478 23.676 5.8702 -3.2978 23.8178 
6.11277 -3.32191 23.9664 6.36377 -3.34671 24.1203 6.61896 -3.37198 24.2766 
6.87454 -3.398 24.4332 7.1263 -3.42565 24.6114 7.37138 -3.45595 24.8816 
7.61496 -3.48874 25.1661 7.86422 -3.52426 25.4568 8.128 -3.56363 25.7643 
8.3058 -3.54623 25.6385 8.50309 -3.57715 25.8746 8.70368 -3.60927 26.1145 
8.90847 -3.64264 26.3594 9.11736 -3.67716 26.6092 9.33083 -3.71293 26.8643 
9.55043 -3.75027 27.1267 9.779 -3.78984 27.3997 10.0076 -3.77592 27.2991 
10.1814 -3.80183 27.5548 10.3583 -3.82986 27.815 10.5407 -3.86037 28.0829 
10.7312 -3.89227 28.3628 10.9345 -3.92363 28.6617 11.152 -3.96163 28.9584 
11.383 -4.00255 29.1993 11.6306 -4.04518 29.4184 11.8981 -4.08986 29.6554 
12.192 -4.13785 29.9158 12.3698 -4.11697 29.7648 12.5728 -4.14215 29.9986 
12.7827 -4.16853 30.2402 13.0016 -4.19576 30.4924 13.2306 -4.22308 30.7562 
13.4717 -4.24961 30.9264 13.7277 -4.2746 31.0492 13.9977 -4.29855 31.1683 
14.2815 -4.32229 31.2936 14.5796 -4.34666 31.4254 14.732 -4.31534 31.199 
15.014 -4.32731 31.3112 15.3029 -4.33958 31.4261 15.5979 -4.35149 31.5436 
15.898 -4.36214 31.6495 16.2027 -4.37058 31.6528 16.51 -4.37798 31.6519 
2.667 -3.07129 23.9337 2.96785 -3.05668 23.7497 3.27312 -3.04445 23.5713 
3.58705 -3.03624 23.5036 3.9116 -3.03249 23.6314 4.1656 -3.00663 23.4299 
4.43958 -3.02063 23.5447 4.72116 -3.03551 23.6627 5.01131 -3.05132 23.7841 
5.3086 -3.06805 23.9086 5.6388 -3.04219 23.707 5.87622 -3.06647 23.8524 
6.11818 -3.09093 24.0007 6.36534 -3.11539 24.1522 6.61618 -3.13974 24.306 
6.86847 -3.16427 24.4607 7.11994 -3.18972 24.6384 7.36935 -3.21682 24.9113 
7.61855 -3.24586 25.2028 7.87065 -3.27702 25.4975 8.128 -3.31052 25.7981 
8.3058 -3.29436 25.6721 8.50907 -3.32367 25.9157 8.71344 -3.35383 26.1605 
8.92011 -3.38496 26.4079 9.12961 -3.41712 26.6587 9.34235 -3.45037 26.9133 
9.55877 -3.48484 27.1722 9.779 -3.52067 27.4356 10.0076 -3.50773 27.3349 
10.1788 -3.52641 27.5875 10.3523 -3.54764 27.8434 10.53 -3.57469 28.1046 
10.7133 -3.60836 28.3735 10.9192 -3.61803 28.679 11.156 -3.6596 29.0031 
11.4002 -3.70438 29.2542 11.6533 -3.75014 29.478 11.917 -3.79654 29.7114 
12.192 -3.84396 29.955 12.3698 -3.82456 29.8038 12.5888 -3.848 30.0564 
12.8105 -3.87201 30.3121 13.0376 -3.89644 30.574 13.2719 -3.92094 30.8444 
13.5149 -3.94508 30.9904 13.7677 -3.96863 31.1078 14.0301 -3.99171 31.2237 
14.3013 -4.01468 31.3435 14.5796 -4.03794 31.4666 14.732 -4.00884 31.2398 
15.0207 -4.01923 31.3549 15.3122 -4.02979 31.4711 15.6073 -4.04012 31.5887 
15.9057 -4.04981 31.6911 16.207 -4.05863 31.6943 16.51 -4.06703 31.6933 
2.667 -2.83617 23.9627 2.97196 -2.82397 23.7759 3.27998 -2.81354 23.5969 
3.59323 -2.80571 23.5346 3.9116 -2.80035 23.66 4.1656 -2.77647 23.4583 
4.44513 -2.7896 23.5756 4.72838 -2.8034 23.6943 5.01655 -2.81793 23.8152 
5.3086 -2.83319 23.9375 5.6388 -2.80931 23.7357 5.87779 -2.83483 23.882 
6.11927 -2.85994 24.03 6.36435 -2.88428 24.1802 6.61275 -2.90761 24.3327 
6.86341 -2.93024 24.4867 7.11499 -2.95302 24.6643 7.36664 -2.97674 24.9379 
7.61876 -3.00188 25.2332 7.87239 -3.02865 25.5302 8.128 -3.0571 25.8293 
8.3058 -3.04217 25.7032 8.51218 -3.06949 25.9508 8.71904 -3.09754 26.1988 
8.92717 -3.12641 26.4484 9.13706 -3.15615 26.6999 9.349 -3.18682 26.9539 
9.56307 -3.21848 27.2103 9.779 -3.25115 27.4689 10.0076 -3.23921 27.368 
10.1721 -3.24832 27.6116 10.3384 -3.25651 27.8582 10.5114 -3.26113 28.115 
10.668 -3.37644 28.3347 10.8246 -3.26113 28.581 11.1316 -3.34418 29.0105 
11.4002 -3.40253 29.2908 11.6617 -3.45344 29.5219 11.9249 -3.50183 29.7547 
12.192 -3.5497 29.9913 12.3698 -3.53178 29.8399 12.5982 -3.55317 30.1037 
12.8281 -3.57498 30.369 13.0613 -3.59708 30.6383 13.2993 -3.61927 30.9119 
13.5433 -3.64137 31.0431 13.7938 -3.66328 31.1571 14.0507 -3.68502 31.2707 
14.3131 -3.7068 31.3868 14.5796 -3.72882 31.5047 14.732 -3.70196 31.2777 
15.0241 -3.71104 31.3942 15.3175 -3.7203 31.5113 15.6129 -3.7295 31.6292 
15.9104 -3.73845 31.7294 16.2097 -3.7471 31.7327 16.51 -3.75569 31.7317 
2.667 -2.60079 23.9894 2.97452 -2.59039 23.8009 3.28398 -2.58127 23.6216 
3.59649 -2.57385 23.5624 3.9116 -2.56794 23.6864 4.1656 -2.54604 23.4844 
4.44803 -2.55817 23.603 4.73236 -2.57086 23.7224 5.01942 -2.58415 23.8429 
5.3086 -2.59805 23.9642 5.6388 -2.57615 23.7622 5.87711 -2.60332 23.9079 
6.11743 -2.62957 24.0551 6.36086 -2.65413 24.2044 6.60771 -2.6764 24.356 
6.85765 -2.69663 24.5099 7.10975 -2.71619 24.6876 7.36304 -2.73619 24.9611 
7.61717 -2.75726 25.2592 7.8722 -2.77965 25.5583 8.128 -2.80338 25.8581 
8.3058 -2.78969 25.7318 8.5139 -2.81486 25.9817 8.72227 -2.84069 26.2318 
8.93135 -2.86723 26.4828 9.14148 -2.89453 26.7349 9.35285 -2.92263 26.9885 
9.56544 -2.95155 27.2434 9.779 -2.98133 27.4995 10.0076 -2.97037 27.3985 
10.1629 -2.97493 27.6288 10.312 -2.97912 27.8499 10.4465 -2.98274 28.0495 
10.668 -2.98274 28.3786 10.8895 -2.98274 28.7078 11.143 -3.04976 29.0572 
11.406 -3.10771 29.3287 11.6677 -3.15918 29.5602 11.9292 -3.20757 29.7918 
12.192 -3.25509 30.0247 12.3698 -3.23867 29.8731 12.6042 -3.25802 30.144 
12.8394 -3.27773 30.4158 13.0768 -3.29772 30.69 13.3174 -3.31785 30.9557 
13.562 -3.33803 31.0874 13.8109 -3.3582 31.1992 14.064 -3.37841 31.3113 
14.3206 -3.39874 31.425 14.5796 -3.41935 31.5398 14.732 -3.39471 31.3125 
15.0259 -3.40271 31.4299 15.3205 -3.41091 31.5475 15.6163 -3.41919 31.6656 
15.9132 -3.42743 31.7645 16.2113 -3.43565 31.7679 16.51 -3.44399 31.7671 
2.667 -2.36515 24.0138 2.97605 -2.35616 23.8243 3.28628 -2.34809 23.6449 
3.59826 -2.34119 23.5874 3.9116 -2.33528 23.7105 4.1656 -2.31536 23.5083 
4.44957 -2.32644 23.6276 4.73454 -2.338 23.7474 5.021 -2.35007 23.8678 
5.3086 -2.36266 23.9885 5.6388 -2.34274 23.7863 5.87491 -2.37227 23.9306 
6.11319 -2.40046 24.0763 6.35474 -2.42601 24.2244 6.60024 -2.44735 24.3754 
6.84999 -2.46425 24.5295 7.10322 -2.4797 24.7077 7.35835 -2.49544 24.9808 
7.61443 -2.51221 25.2816 7.87108 -2.53022 25.5828 8.128 -2.54938 25.8844 
8.3058 -2.53694 25.758 8.51489 -2.55988 26.0093 8.72414 -2.58342 26.2607 
8.9338 -2.6076 26.5126 9.14408 -2.63244 26.7652 9.35508 -2.65797 27.0185 
9.56678 -2.68423 27.2727 9.779 -2.71121 27.5274 10.0076 -2.70125 27.4263 
10.1738 -2.703 27.6728 10.3404 -2.7042 27.9201 10.5114 -2.70436 28.174 
10.668 -2.58904 28.4173 10.8246 -2.70436 28.639 11.1418 -2.76886 29.0838 
11.4131 -2.82139 29.3641 11.6743 -2.86918 29.5957 11.933 -2.91485 29.8253 
12.192 -2.96017 30.0552 12.3698 -2.94524 29.9035 12.608 -2.96263 30.1789 
12.8468 -2.98036 30.4549 13.087 -2.99834 30.7326 13.3293 -3.01652 30.993 
13.5743 -3.03483 31.1252 13.8221 -3.05324 31.2355 14.0726 -3.07178 31.3467 
14.3253 -3.09052 31.459 14.5796 -3.10955 31.5718 14.732 -3.08715 31.3443 
15.0269 -3.09422 31.4622 15.3223 -3.10151 31.5801 15.6182 -3.10894 31.6983 
[...]
POINT_DATA 47025
SCALARS Density float
LOOKUP_TABLE default
0.498983 0.376668 0.333115 0.311612 0.267114 0.639897 0.479756 0.477011 0.461867 
0.428373 0.639897 0.608989 0.570884 0.510595 0.443823 0.407467 0.376066 0.34614 
0.320823 0.300205 0.284005 0.639897 0.36741 0.347765 0.327709 0.307266 0.288386 
0.271982 0.260357 0.639897 0.367119 0.339721 0.314028 0.29237 0.274567 0.260808 
0.25104 0.244068 0.238957 0.236487 0.639897 0.412053 0.389098 0.363556 0.341029 
0.324234 0.314285 0.306154 0.299862 0.29606 0.639897 0.405165 0.386148 0.366725 
0.35136 0.340865 0.33445 0.480383 0.320869 0.293328 0.263746 0.442123 0.539536 
0.436191 0.426753 0.410546 0.520346 0.603812 0.548186 0.497734 0.446365 0.411812 
0.383622 0.354978 0.328091 0.305938 0.288684 0.460572 0.50022 0.35006 0.329034 
0.308031 0.287955 0.270372 0.257003 0.445749 0.497058 0.340673 0.315481 0.294657 
0.278082 0.26483 0.254976 0.248135 0.243358 0.240518 0.439756 0.527337 0.404016 
0.38088 0.35774 0.339022 0.325669 0.316415 0.309611 0.304815 0.471433 0.525214 
0.401559 0.38366 0.367463 0.355728 0.34742 0.339786 0.464504 0.289111 0.267902 
0.243983 0.434571 0.528325 0.414677 0.406665 0.391739 0.511322 0.591683 0.528475 
0.486712 0.442924 0.412559 0.3854 0.35695 0.329575 0.306423 0.288415 0.460357 
0.499114 0.346938 0.323842 0.301444 0.28127 0.264003 0.251062 0.442902 0.492821 
0.335782 0.317114 0.300979 0.287198 0.275074 0.264944 0.257286 0.251657 0.248041 
0.443325 0.537529 0.423813 0.40236 0.382933 0.366269 0.353496 0.343899 0.336163 
0.330047 0.4837 0.549245 0.448098 0.423987 0.403601 0.393026 0.385385 0.374283 
0.449472 0.259047 0.244298 0.228457 0.429995 0.519683 0.397323 0.390273 0.378815 
0.506079 0.583424 0.518264 0.489518 0.450696 0.420042 0.393872 0.36466 0.336378 
0.311658 0.291987 0.461791 0.49974 0.347311 0.322586 0.299142 0.278691 0.261621 
0.248943 0.441885 0.493601 0.350639 0.348555 0.339219 0.326205 0.308149 0.291228 
0.277498 0.267509 0.260795 0.4491 0.556152 0.463214 0.44592 0.429511 0.413275 
0.400986 0.393455 0.38736 0.382241 0.509971 0.600175 0.551257 0.528397 0.506837 
0.493448 0.480497 0.454781 0.437303 0.234709 0.226816 0.219303 0.428248 0.513012 
0.384511 0.379601 0.37173 0.503526 0.577575 0.512009 0.494622 0.459136 0.427264 
0.402332 0.37312 0.344325 0.318161 0.297129 0.464085 0.501706 0.350714 0.325439 
0.301768 0.280972 0.263636 0.250681 0.442681 0.502199 0.412132 0.481884 0.50398 
0.49788 0.408159 0.315427 0.301734 0.293977 0.288257 0.462793 0.588512 0.533669 
0.524569 0.512208 0.498994 0.487719 0.478424 0.469361 0.462097 0.54964 0.635385 
0.628288 0.619044 0.602176 0.584025 0.564477 0.524176 0.430783 0.221669 0.220168 
0.217833 0.428682 0.509648 0.37806 0.373961 0.367559 0.501907 0.571103 0.501577 
0.489608 0.458493 0.428811 0.405164 0.377212 0.349262 0.323284 0.302689 0.467065 
0.50484 0.35758 0.333304 0.30986 0.28864 0.270873 0.257129 0.445601 0.520963 
0.495449 0.613124 0.638639 0.639897 0.501968 0.352398 0.335957 0.327146 0.319714 
0.478094 0.61408 0.583668 0.57052 0.550312 0.529596 0.508963 0.486403 0.46918 
0.459141 0.547618 0.627996 0.608668 0.589093 0.561714 0.534685 0.509084 0.478581 
0.429468 0.219039 0.221802 0.22084 0.430107 0.507089 0.37172 0.365126 0.356807 
0.496209 0.554013 0.467402 0.459435 0.440417 0.419086 0.397601 0.373462 0.349106 
0.326215 0.30816 0.470373 0.50913 0.368265 0.346851 0.324769 0.304007 0.285795 
0.270894 0.452051 0.526198 0.465623 0.52302 0.582964 0.596411 0.474672 0.379524 
0.354825 0.338295 0.325954 0.48049 0.610127 0.56773 0.534097 0.491666 0.459489 
0.436365 0.412966 0.396521 0.387578 0.511975 0.596406 0.533788 0.49426 0.460346 
0.436446 0.415407 0.399812 0.431702 0.223506 0.227542 0.225205 0.431845 0.502379 
0.359791 0.34818 0.335842 0.484971 0.535859 0.430179 0.425741 0.41778 0.404712 
0.387909 0.369123 0.34917 0.330637 0.316083 0.474945 0.516005 0.384254 0.367043 
0.348388 0.329344 0.31118 0.295336 0.463905 0.521112 0.398325 0.395877 0.450578 
0.45853 0.390729 0.357326 0.338649 0.324165 0.313189 0.474357 0.592288 0.521807 
0.47209 0.4266 0.399625 0.384135 0.3701 0.357513 0.348279 0.492326 0.560145 
0.460552 0.425088 0.401347 0.387678 0.376582 0.365055 0.436862 0.233828 0.235323 
0.230224 0.433858 0.49454 0.341903 0.326734 0.312104 0.472631 0.524836 0.408344 
0.41131 0.418514 0.41389 0.39744 0.378581 0.359856 0.343473 0.330437 0.482397 
0.525013 0.40517 0.394195 0.381057 0.365574 0.349606 0.334938 0.483887 0.536141 
0.418546 0.396902 0.38219 0.368353 0.35458 0.340889 0.327956 0.315955 0.305719 
0.47065 0.581012 0.490395 0.435734 0.399133 0.37649 0.36035 0.346493 0.334752 
0.326684 0.481782 0.538576 0.423988 0.399896 0.380412 0.366053 0.354993 0.344795 
0.444066 0.248235 0.243882 0.235825 0.436104 0.486214 0.324241 0.3081 0.293613 
0.463437 0.516377 0.395832 0.440521 0.509908 0.518672 0.451949 0.391106 0.36977 
0.354085 0.340853 0.487449 0.530622 0.418691 0.412805 0.405422 0.396179 0.385967 
0.375694 0.50522 0.570742 0.483924 0.449697 0.417517 0.392535 0.373588 0.355695 
0.338974 0.322954 0.309967 0.472244 0.582272 0.488807 0.430513 0.392685 0.368308 
0.351496 0.336771 0.325342 0.318176 0.477709 0.531213 0.411703 0.389004 0.368523 
0.353949 0.342436 0.333081 0.449245 0.258594 0.250346 0.240378 0.438001 0.480891 
0.313256 0.296927 0.283075 0.45841 0.510944 0.402649 0.507403 0.615068 0.623987 
0.505219 0.379484 0.34788 0.330541 0.317104 0.475457 0.521877 0.401834 0.397582 
0.392976 0.387972 0.382314 0.375929 0.506235 0.580572 0.505634 0.468616 0.432438 
0.407091 0.385389 0.365368 0.346413 0.327793 0.313106 0.473437 0.584819 0.493431 
0.432723 0.392208 0.366627 0.348855 0.333678 0.322092 0.314584 0.475845 0.52949 
0.407392 0.383418 0.362379 0.347393 0.335704 0.326793 0.450897 0.261898 0.253245 
0.242723 0.439077 0.478263 0.30797 0.291713 0.278182 0.456073 0.506172 0.397768 
0.524433 0.632836 0.639897 0.511187 0.354954 0.315848 0.296803 0.283802 0.459079 
0.507474 0.372915 0.36809 0.362142 0.354969 0.347357 0.340282 0.488402 0.549527 
0.447617 0.421138 0.397311 0.378644 0.359407 0.34266 0.327165 0.312183 0.300686 
0.467932 0.577681 0.480052 0.425057 0.389797 0.364984 0.347569 0.332583 0.32115 
0.313626 0.475363 0.529256 0.406848 0.382754 0.361576 0.346401 0.334578 0.325667 
0.451586 0.263275 0.254235 0.243595 0.43951 0.476704 0.305005 0.289081 0.275835 
0.454953 0.501923 0.373583 0.44157 0.504738 0.502615 0.422466 0.330208 0.301063 
0.283992 0.272048 0.453488 0.500254 0.357119 0.348989 0.339129 0.327662 0.31588 
0.306171 0.470947 0.522814 0.395837 0.37627 0.357792 0.341327 0.326537 0.313864 
0.302997 0.293016 0.285471 0.461239 0.569769 0.467579 0.420524 0.391353 0.368464 
0.351954 0.337276 0.325521 0.317872 0.477496 0.531492 0.412214 0.389282 0.368278 
0.353063 0.340996 0.33137 0.450561 0.261225 0.252547 0.242481 0.439081 0.476522 
0.304598 0.288618 0.275459 0.454815 0.499573 0.35916 0.362185 0.361261 0.347021 
0.32713 0.30787 0.290273 0.275875 0.264992 0.450189 0.494629 0.344335 0.33294 
0.319768 0.305964 0.292433 0.281243 0.45824 0.510132 0.371435 0.355014 0.3407 
0.328385 0.317373 0.306849 0.29746 0.289135 0.282661 0.460012 0.572741 0.481484 
0.437254 0.405693 0.385923 0.369683 0.354912 0.342463 0.333476 0.484982 0.546459 
0.434832 0.405827 0.385974 0.37039 0.357877 0.34655 0.447619 0.255341 0.248141 
0.239343 0.437778 0.478139 0.30756 0.291028 0.277598 0.455888 0.500235 0.356314 
0.347437 0.337116 0.325125 0.311855 0.297341 0.282776 0.269891 0.259904 0.447833 
0.489759 0.333459 0.319866 0.304888 0.290096 0.27615 0.264478 0.449703 0.504959 
0.3734 0.370608 0.371937 0.369133 0.348261 0.329234 0.314329 0.302812 0.294219 
0.465297 0.58633 0.519396 0.486089 0.452818 0.427167 0.406153 0.391083 0.378664 
0.368628 0.502266 0.580784 0.500137 0.461863 0.427802 0.403517 0.389981 0.37582 
0.444357 0.248816 0.243098 0.235545 0.43617 0.481033 0.313118 0.296043 0.282074 
0.458014 0.503792 0.362419 0.35096 0.337945 0.32447 0.310733 0.296304 0.281813 
0.268818 0.258623 0.447086 0.487183 0.327195 0.311645 0.295291 0.279751 0.265731 
0.25412 0.444481 0.509442 0.448009 0.51369 0.521215 0.524223 0.439404 0.349008 
0.327593 0.31347 0.302714 0.468999 0.596764 0.548397 0.533802 0.513319 0.491498 
0.472625 0.456856 0.441438 0.428234 0.531376 0.620317 0.590559 0.562386 0.525043 
0.496001 0.473429 0.44601 0.441161 0.242425 0.238285 0.231801 0.434525 0.484838 
0.320525 0.303041 0.288536 0.46108 0.509103 0.373172 0.361353 0.347465 0.332633 
0.317266 0.30124 0.285362 0.271295 0.260078 0.447618 0.486218 0.3241 0.306917 
0.28944 0.272993 0.258849 0.247798 0.441536 0.50742 0.491678 0.622896 0.638639 
0.639897 0.503265 0.344723 0.311839 0.293617 0.281453 0.458217 0.580448 0.516199 
0.503396 0.487733 0.476539 0.468263 0.458029 0.446923 0.437815 0.537108 0.632615 
0.620381 0.604177 0.581123 0.558605 0.532011 0.494506 0.43793 0.235964 0.233759 
0.228281 0.432944 0.489479 0.329705 0.31169 0.296539 0.464972 0.514822 0.385317 
0.374158 0.359616 0.343649 0.326556 0.308456 0.290914 0.27519 0.262676 0.448703 
0.486048 0.322758 0.304008 0.28567 0.268628 0.254097 0.243568 0.439726 0.495617 
0.407986 0.475247 0.493621 0.491346 0.406056 0.310484 0.278946 0.261094 0.250452 
0.443169 0.548359 0.449499 0.431487 0.411025 0.39725 0.389414 0.382103 0.375704 
0.371447 0.505003 0.593359 0.537874 0.516372 0.496522 0.48318 0.468844 0.443559 
0.434614 0.229331 0.229458 0.225001 0.431486 0.494593 0.340256 0.322221 0.306171 
0.46951 0.52153 0.398607 0.387258 0.372237 0.354903 0.336037 0.316187 0.296655 
0.279034 0.265314 0.449834 0.486218 0.322303 0.302245 0.283127 0.265755 0.25112 
0.240643 0.438311 0.488523 0.334123 0.322833 0.317401 0.306409 0.28181 0.262665 
0.248595 0.23941 0.233957 0.435945 0.530035 0.409881 0.388163 0.366737 0.350473 
0.338951 0.329108 0.320758 0.314904 0.476355 0.544002 0.438633 0.417364 0.400125 
0.391101 0.383803 0.371478 0.431586 0.223275 0.225446 0.221932 0.43012 0.49956 
0.350896 0.333683 0.317431 0.474981 0.528825 0.412957 0.400509 0.384144 0.365214 
0.344495 0.32268 0.301034 0.28197 0.267374 0.450703 0.486485 0.322391 0.301589 
0.282029 0.264494 0.249905 0.239496 0.437738 0.486723 0.321106 0.298488 0.279428 
0.263194 0.250063 0.240159 0.233209 0.228598 0.226161 0.432702 0.522803 0.391013 
0.362738 0.338682 0.321538 0.309996 0.301317 0.294544 0.289921 0.464083 0.522914 
0.396783 0.378403 0.361822 0.349834 0.341709 0.333391 0.429457 0.219017 0.221704 
0.219074 0.428857 0.503559 0.36019 0.344914 0.329366 0.480981 0.535274 0.426068 
0.41328 0.394754 0.37367 0.351088 0.326993 0.303798 0.28392 0.268846 0.451314 
0.486991 0.323398 0.302516 0.282857 0.265291 0.250697 0.240383 0.438229 0.488019 
0.321173 0.293816 0.271718 0.254708 0.242204 0.233694 0.22807 0.224495 0.22298 
0.43131 0.517705 0.378856 0.347668 0.322755 0.306066 0.295326 0.287546 0.281634 
0.27758 0.457995 0.514914 0.378686 0.357112 0.339323 0.327423 0.319961 0.313745 
0.429601 0.219304 0.219095 0.216495 0.427731 0.505505 0.366333 0.354501 0.340542 
0.486767 0.54403 0.440042 0.423528 0.403335 0.379877 0.355284 0.329451 0.305432 
0.285266 0.270005 0.451843 0.487952 0.325768 0.305442 0.285953 0.268439 0.253873 
0.243644 0.439882 0.491258 0.327095 0.298 0.273716 0.255091 0.241777 0.232985 
0.22724 0.223667 0.222236 0.43096 0.515499 0.373963 0.341794 0.316252 0.299711 
0.289487 0.282011 0.27626 0.27256 0.455613 0.510997 0.370341 0.347653 0.329993 
0.319494 0.312719 0.306921 0.43779 0.235683 0.224821 0.215958 0.426991 0.506205 
0.370424 0.363422 0.352466 0.493159 0.558821 0.463435 0.436415 0.411336 0.38584 
0.35884 0.331829 0.307476 0.287155 0.271775 0.4527 0.489604 0.329936 0.310697 
0.291618 0.274498 0.260148 0.249888 0.442984 0.496024 0.337051 0.308039 0.282582 
0.262143 0.247159 0.237154 0.2305 0.226068 0.223912 0.431674 0.516676 0.376526 
0.344481 0.318801 0.301906 0.291332 0.283729 0.277817 0.273944 0.45626 0.511808 
0.372026 0.349465 0.331558 0.320721 0.313854 0.307947 0.468621 0.297344 0.266482 
0.234368 0.430067 0.51166 0.383554 0.381638 0.374367 0.50452 0.582692 0.509886 
0.476461 0.438088 0.40216 0.371227 0.341287 0.314762 0.292988 0.277009 0.455281 
0.493557 0.33836 0.320195 0.301961 0.285135 0.270813 0.260457 0.44821 0.502335 
0.351127 0.323985 0.298298 0.275989 0.258542 0.246408 0.237966 0.231958 0.228578 
0.433734 0.520819 0.385933 0.355809 0.330493 0.312875 0.301437 0.292924 0.286473 
0.282096 0.460187 0.517143 0.383427 0.362139 0.344084 0.331831 0.323748 0.317121 
0.514002 0.388107 0.347472 0.296396 0.45311 0.537995 0.436595 0.433802 0.419545 
0.524241 0.61557 0.581853 0.565466 0.543807 0.496042 0.427096 0.37088 0.33506 
0.308298 0.289996 0.461453 0.50156 0.35534 0.338595 0.321216 0.304478 0.289741 
0.279139 0.457475 0.512715 0.373825 0.351563 0.329008 0.304634 0.282426 0.265666 
0.253252 0.244131 0.238406 0.438105 0.526987 0.40141 0.37536 0.351329 0.334001 
0.32163 0.311819 0.304533 0.299572 0.468838 0.526519 0.404609 0.387005 0.370516 
0.358495 0.349978 0.340808 0.559502 0.479107 0.426735 0.371401 0.491152 0.583448 
0.520656 0.501682 0.463504 0.538929 0.636112 0.63009 0.630227 0.632237 0.607179 
0.505609 0.401455 0.35684 0.327534 0.307714 0.469879 0.512609 0.37957 0.366249 
0.351426 0.336483 0.321921 0.311149 0.473573 0.538757 0.424019 0.410173 0.448908 
0.424687 0.336436 0.298911 0.278284 0.264503 0.255503 0.446017 0.543635 0.433827 
0.408205 0.387364 0.372558 0.36087 0.350757 0.342843 0.337659 0.48791 0.557202 
0.465576 0.444474 0.420757 0.404174 0.395397 0.38231 0.594418 0.548939 0.487366 
0.426098 0.519364 0.616169 0.576988 0.539697 0.481126 0.542144 0.638639 0.63738 
0.63738 0.638009 0.638639 0.549892 0.424011 0.370834 0.344475 0.327053 0.479923 
0.525638 0.40785 0.399651 0.390013 0.379397 0.367987 0.358557 0.497392 0.594325 
0.544559 0.544124 0.593261 0.582413 0.441387 0.3376 0.309314 0.293275 0.282357 
0.459038 0.574532 0.499022 0.479896 0.462396 0.448815 0.438129 0.426929 0.416571 
0.40978 0.523833 0.610395 0.574191 0.554511 0.528509 0.507801 0.491043 0.46211 
0.600716 0.561535 0.505868 0.447219 0.529522 0.630324 0.603859 0.563984 0.504203 
0.553651 0.638639 0.63738 0.63738 0.638639 0.639897 0.565702 0.448966 0.389443 
0.362409 0.344751 0.488521 0.537738 0.430694 0.423028 0.417076 0.41038 0.403263 
0.396727 0.51684 0.627868 0.626609 0.63738 0.638639 0.639897 0.514521 0.367704 
0.334845 0.315345 0.301079 0.467396 0.59107 0.537374 0.523804 0.504907 0.487056 
0.469937 0.453499 0.441216 0.432933 0.534928 0.629739 0.613563 0.595709 0.571409 
0.546985 0.516227 0.480309 0.57799 0.516083 0.464785 0.425771 0.523105 0.636116 
0.619908 0.588183 0.537833 0.57334 0.638639 0.63738 0.63738 0.638009 0.638638 
0.576992 0.467398 0.399857 0.367791 0.345264 0.487555 0.536755 0.428002 0.418811 
0.411067 0.40224 0.393452 0.386063 0.511348 0.603516 0.581753 0.583924 0.560961 
0.535622 0.451251 0.362278 0.329057 0.30573 0.288832 0.460682 0.576405 0.501093 
0.47653 0.454007 0.435711 0.41743 0.401078 0.38952 0.380778 0.508451 0.595553 
0.53818 0.507794 0.479766 0.459032 0.434117 0.412666 0.546455 0.453013 0.415009 
0.389101 0.506935 0.628742 0.61246 0.593594 0.554482 0.584502 0.638639 0.63738 
0.63738 0.63738 0.626587 0.559421 0.45712 0.390909 0.355995 0.330378 0.479644 
0.52643 0.407808 0.396185 0.382903 0.368382 0.354078 0.342482 0.488692 0.556757 
0.477124 0.461542 0.425076 0.386216 0.348942 0.319589 0.295194 0.276441 0.263257 
0.448946 0.550198 0.44696 0.420317 0.397143 0.380303 0.367047 0.354497 0.343629 
0.335396 0.485931 0.553504 0.454917 0.428193 0.40652 0.39368 0.381673 0.368866 
0.525367 0.410838 0.38151 0.352369 0.486776 0.608984 0.579496 0.572623 0.54297 
0.580756 0.638639 0.63738 0.635037 0.618327 0.568928 0.488761 0.415651 0.369538 
0.337449 0.313389 0.47159 0.517322 0.387508 0.371455 0.353837 0.335991 0.319011 
0.30517 0.469582 0.524865 0.398902 0.374535 0.348587 0.323779 0.300664 0.281696 
0.266902 0.255212 0.247125 0.44199 0.53428 0.418948 0.396989 0.373337 0.354223 
0.340409 0.328839 0.319385 0.312738 0.47499 0.532783 0.417813 0.401077 0.384191 
0.370335 0.358635 0.348069 0.51215 0.384402 0.351826 0.318884 0.468243 0.584992 
0.532642 0.528092 0.498865 0.558321 0.637996 0.62755 0.602453 0.550346 0.479464 
0.420193 0.378818 0.346703 0.320176 0.299398 0.465179 0.509282 0.369833 0.351245 
0.331633 0.312586 0.295089 0.28069 0.457247 0.512728 0.3723 0.34563 0.320116 
0.297548 0.278742 0.264269 0.253508 0.245427 0.240002 0.438963 0.529445 0.408509 
0.384716 0.360183 0.340341 0.326307 0.31651 0.308495 0.302563 0.470081 0.526865 
0.405622 0.38754 0.369562 0.35569 0.34451 0.335932 0.509572 0.376668 0.333115 
0.311612 0.267114 0.639897 0.479756 0.477011 0.461867 0.428373 0.639897 0.608989 
0.570884 0.510595 0.443823 0.407467 0.376066 0.34614 0.320823 0.300205 0.284005 
0.639897 0.36741 0.347765 0.327709 0.307266 0.288386 0.271982 0.260357 0.639897 
0.367119 0.339721 0.314028 0.29237 0.274567 0.260808 0.25104 0.244068 0.238957 
0.236487 0.639897 0.412053 0.389098 0.363556 0.341029 0.324234 0.314285 0.306154 
0.299862 0.29606 0.639897 0.405165 0.386148 0.366725 0.35136 0.340865 0.333166 
0.639897 0.365979 0.313944 0.274329 0.310323 0.367542 0.368533 0.362733 0.348782 
0.388138 0.435462 0.424559 0.399611 0.365847 0.336417 0.315531 0.296917 0.28066 
0.267477 0.25744 0.278857 0.301265 0.293181 0.28317 0.27262 0.262071 0.252378 
0.244959 0.277081 0.306792 0.294495 0.280756 0.268284 0.257781 0.24938 0.243257 
0.239193 0.236588 0.235612 0.290455 0.345088 0.340383 0.329912 0.31839 0.308525 
0.301718 0.297113 0.293427 0.291109 0.327585 0.363858 0.358117 0.347897 0.338109 
0.330791 0.325286 0.322701 0.639897 0.336214 0.290748 0.256985 0.291327 0.34297 
0.342074 0.335983 0.326219 0.36563 0.408836 0.396649 0.370216 0.342666 0.323128 
0.306755 0.290486 0.275517 0.263308 0.254151 0.274915 0.296139 0.287578 0.276894 
0.265858 0.25503 0.245345 0.238263 0.26979 0.298355 0.286315 0.274273 0.264132 
0.255923 0.249384 0.244696 0.241729 0.240016 0.239604 0.294745 0.349734 0.345397 
0.335229 0.324047 0.314608 0.307787 0.303154 0.299823 0.297658 0.333968 0.370044 
0.364395 0.354641 0.345388 0.338819 0.334295 0.332152 0.639897 0.308557 0.271245 
0.244306 0.280644 0.329913 0.328755 0.323504 0.31454 0.351273 0.392937 0.384603 
0.36252 0.338947 0.321881 0.306435 0.290543 0.275505 0.262906 0.253377 0.27411 
0.294829 0.285178 0.273354 0.261535 0.250615 0.241102 0.234311 0.265938 0.294548 
0.286543 0.281461 0.275305 0.268213 0.261575 0.256116 0.252121 0.249371 0.247858 
0.307625 0.368104 0.363804 0.354634 0.345461 0.337084 0.330516 0.325663 0.321799 
0.318845 0.361364 0.405197 0.399942 0.387112 0.375658 0.369657 0.365427 0.363181 
0.639897 0.283213 0.254656 0.235119 0.273433 0.320322 0.319025 0.314411 0.307409 
0.343427 0.383994 0.379827 0.364306 0.343215 0.325968 0.310942 0.29457 0.278988 
0.265543 0.255111 0.275408 0.295667 0.285129 0.27244 0.260071 0.249029 0.239661 
0.233108 0.264968 0.297313 0.308351 0.326622 0.327979 0.313795 0.295868 0.282319 
0.272473 0.265613 0.261018 0.32748 0.398127 0.397694 0.391789 0.385011 0.377381 
0.371421 0.367911 0.365108 0.362952 0.418479 0.476043 0.472624 0.460576 0.448501 
0.440915 0.433524 0.429066 0.639897 0.261856 0.242675 0.229964 0.269395 0.31355 
0.312361 0.30895 0.303963 0.339979 0.3795 0.378165 0.368306 0.348773 0.330694 
0.316019 0.299424 0.283423 0.269166 0.258 0.278019 0.298122 0.28714 0.274192 
0.261774 0.25063 0.241183 0.234743 0.26875 0.312393 0.38074 0.473784 0.503567 
0.483686 0.392236 0.31022 0.29801 0.291344 0.286547 0.363917 0.448689 0.45454 
0.453712 0.449449 0.443662 0.438295 0.433672 0.429079 0.426064 0.481478 0.540369 
0.540646 0.532277 0.518524 0.504515 0.491112 0.483876 0.639897 0.247852 0.237652 
0.229428 0.268715 0.310658 0.309242 0.306324 0.302236 0.337055 0.374566 0.374243 
0.367012 0.349523 0.332391 0.318213 0.302121 0.286461 0.2723 0.2614 0.281747 
0.302115 0.291632 0.279277 0.267077 0.255805 0.246207 0.239659 0.277177 0.339742 
0.473328 0.610746 0.63738 0.628104 0.487462 0.345226 0.329347 0.320794 0.314349 
0.39668 0.485355 0.488148 0.483691 0.474008 0.463441 0.452334 0.439656 0.429677 