/*--------------------------------*- C++ -*----------------------------------*\
  =========                 |
  \\      /  F ield         | OpenFOAM: The Open Source CFD Toolbox
   \\    /   O peration     | Website:  https://openfoam.org
    \\  /    A nd           | Version:  7
     \\/     M anipulation  |
\*---------------------------------------------------------------------------*/
FoamFile
{
    version     2.0;
    format      ascii;
    class       volScalarField;
    location    "0.2";
    object      p;
}
// * * * * * * * * * * * * * * * * * * * * * * * * * * * * * * * * * * * * * //

dimensions      [0 2 -2 0 0 0 0];

internalField   nonuniform List<scalar> 
125
(
0.0258623
0.0232656
0.0256846
0.0256846
0.0240687
0.0306289
0.0240687
0.0247023
0.0248527
0.0247023
0.0234836
0.0321145
0.0240619
0.0203201
0.0321145
0.0234836
0.0238388
0.0239548
0.0239548
0.0238388
0.0235028
0.024982
0.0232321
0.024146
0.0327799
0.0232321
0.0349506
0.024146
0.024982
0.0235028
0.0244157
0.0193478
0.0272414
0.0193478
0.0244157
0.0237064
0.0257995
0.0193979
0.0193153
0.025499
0.0250298
0.0395999
0.0270875
0.025499
0.0193979
0.0395999
0.0193153
0.0257995
0.0237064
0.0203212
0.0263406
0.0263406
0.0203212
0.0244849
0.0196406
0.0244461
0.0246283
0.023245
0.0161201
0.0212567
0.024986
0.023245
0.0435664
0.0212567
0.0246283
0.0196406
0.0161201
0.0244461
0.0244849
0.0290906
0.0145865
0.0290906
0.0231814
0.0234399
0.025001
0.0293907
0.024286
0.0251225
0.00404957
0.0197021
0.0216405
0.0251225
0.025001
0.0197021
0.024286
0.0234399
0.0293907
0.0231814
0.0196729
0.0196729
0.0236696
0.0231983
0.0259905
0.00637817
0.030116
0.0230254
0.0224997
0.00637817
0.0197919
0.0230254
0.0259905
0.030116
0.0231983
0.0236696
0.0255623
0.0242064
0.0234333
0.0242677
0.00916599
0.0240684
0.0198422
0.0242677
0.0240684
0.0234333
0.0242064
0.023284
0.0202057
0.0268243
0.0230117
0.0202057
0.023284
0.0222486
0.0212178
0.0222486
0.0222013
)
;

boundaryField
{
    wall
    {
        type            zeroGradient;
    }
    inlet
    {
        type            zeroGradient;
    }
    outlet
    {
        type            fixedValue;
        value           uniform 0;
    }
}


// ************************************************************************* //
