/*--------------------------------*- C++ -*----------------------------------*\
  =========                 |
  \\      /  F ield         | OpenFOAM: The Open Source CFD Toolbox
   \\    /   O peration     | Website:  https://openfoam.org
    \\  /    A nd           | Version:  7
     \\/     M anipulation  |
\*---------------------------------------------------------------------------*/
FoamFile
{
    version     2.0;
    format      ascii;
    class       surfaceScalarField;
    location    "0.2";
    object      phi;
}
// * * * * * * * * * * * * * * * * * * * * * * * * * * * * * * * * * * * * * //

dimensions      [0 3 -1 0 0 0 0];

internalField   nonuniform List<scalar> 
300
(
-0.00139429
0.000697145
0.000697145
0.000782644
-0.00295958
0.000782644
-0.00134792
0.0012325
0.000812569
-0.00134792
0.000812569
0.0012325
0.00142738
-0.00285155
0.000858889
0.00117028
-0.00530014
0.00117028
0.000858889
-0.00285155
0.00142738
-0.000957802
0.00127453
0.000915768
-0.0013321
0.00147862
0.00147862
-0.000957802
0.000915768
0.00127453
0.00135281
-0.00176056
0.000877327
0.00227241
-0.00511724
0.00116357
0.00158483
-0.00278399
0.00158483
0.00149027
-0.00828068
0.00149027
0.00116357
-0.00511724
0.00227241
0.000877327
-0.00176056
0.00135281
-0.000932154
0.000693828
0.00151286
-0.00103918
0.00180978
0.00162378
-0.00103918
0.00162378
0.00180978
-0.000932154
0.00151286
0.000693828
0.000745339
-0.00160795
0.00128327
0.00170864
-0.00207753
0.00088073
0.00171628
-0.0018372
0.00154391
0.00291556
-0.00799627
0.00145374
0.00225522
-0.00496729
0.00225522
0.00154391
-0.0018372
0.00171628
0.00385966
0.00385966
0.00145374
-0.00799627
0.00291556
0.00088073
-0.00207753
0.00170864
0.00128327
-0.00160795
0.000745339
-0.000845553
0.00153938
-0.00123795
0.000921424
0.00363917
-0.000958728
0.00210315
0.00210315
-0.00123795
0.00363917
0.000921424
-0.000845553
0.00153938
-0.00139077
0.00129056
0.000924414
-0.00180542
0.000981697
0.00088119
-0.00200045
0.00288085
0.00204808
-0.00212311
0.000913058
0.00179391
-0.0021011
0.00160593
0.00187931
-0.00162953
0.00187931
0.00814665
0.00371673
0.00284063
-0.00774107
0.00284063
0.00160593
-0.0021011
0.00179391
0.00288085
-0.00200045
0.00088119
0.00371673
0.00814665
0.000913058
-0.00212311
0.00204808
0.000981697
-0.00180542
0.000924414
0.00129056
-0.00139077
-0.00116913
0.00362994
-0.00133684
0.00106469
0.00601446
-0.00133684
0.00601446
0.00106469
-0.00116913
0.00362994
-0.00140517
0.000938818
-0.00183885
0.00284147
0.00110785
-0.00175189
0.00088671
0.000956593
-0.00196486
0.00178343
0.000958869
-0.0021369
0.00460136
0.00471252
0.00131102
0.00204494
-0.00208791
0.00169556
0.00159871
-0.00161509
0.00159871
0.00460136
-0.0021369
0.000958869
0.0078462
0.0078462
0.00169556
-0.00208791
0.00204494
0.00178343
-0.00196486
0.000956593
0.00284147
-0.00183885
0.00131102
0.00471252
0.00088671
-0.00175189
0.00110785
0.000938818
-0.00140517
-0.00130482
0.00599944
-0.0104999
0.00282229
0.00282229
-0.00130482
0.00599944
-0.00108353
0.000786206
-0.00162887
0.00168543
-0.00207494
0.00457046
0.00186899
0.00109164
0.00109206
-0.00175588
0.00163061
0.000850972
-0.00183671
0.00223098
0.00207275
-0.00544264
0.00207275
0.00456626
0.00250305
0.00151905
-0.00126206
0.00151905
0.00223098
-0.00183671
0.000850972
0.00457046
-0.00207494
0.00250305
0.00456626
0.00163061
-0.00175588
0.00109206
0.00168543
-0.00162887
0.00109164
0.00186899
0.000786206
-0.00108353
-0.00999005
0.00281831
-0.00999005
0.00281831
0.00078546
-0.00114809
0.00139748
-0.00173672
0.00219819
-0.00540309
0.00205624
0.00179427
0.00210776
0.000855521
-0.00125062
0.00170805
0.00112985
-0.00324037
0.00112985
0.00205624
-0.00540309
0.00187202
0.00187202
0.00170805
-0.00125062
0.000855521
0.00219819
-0.00173672
0.00210776
0.00179427
0.00139748
-0.00114809
0.00078546
-0.00949224
0.00143163
-0.00107829
0.00159457
-0.0031848
0.00110975
-0.00537976
0.00103432
0.00169483
0.000884852
-0.00159398
0.000884852
0.00110975
-0.0031848
0.00169483
0.00103432
0.00159457
-0.00107829
0.00143163
0.00138766
-0.00153026
0.000824886
-0.00316026
0.000897844
0.000897844
0.000824886
-0.00153026
0.00138766
0.000755246
-0.00151049
0.000755246
)
;

boundaryField
{
    wall
    {
        type            calculated;
        value           uniform 0;
    }
    inlet
    {
        type            calculated;
        value           nonuniform List<scalar> 4(-0.016 -0.016 -0.016 -0.016);
    }
    outlet
    {
        type            calculated;
        value           nonuniform List<scalar> 4(0.0159935 0.0168842 0.0151289 0.0159935);
    }
}


// ************************************************************************* //
