/*--------------------------------*- C++ -*----------------------------------*\
  =========                 |
  \\      /  F ield         | OpenFOAM: The Open Source CFD Toolbox
   \\    /   O peration     | Website:  https://openfoam.org
    \\  /    A nd           | Version:  7
     \\/     M anipulation  |
\*---------------------------------------------------------------------------*/
FoamFile
{
    version     2.0;
    format      ascii;
    class       volVectorField;
    location    "0.2";
    object      U;
}
// * * * * * * * * * * * * * * * * * * * * * * * * * * * * * * * * * * * * * //

dimensions      [0 1 -1 0 0 0 0];

internalField   nonuniform List<vector> 
125
(
(-0.00227042 0.00402129 0.00227042)
(-0.00250033 0.0145215 0.00250033)
(-0.00639214 0.00395219 0.00263485)
(-0.00263485 0.00395219 0.00639214)
(-0.00758728 0.0139257 0.00275721)
(-0.00326749 0.0198213 0.00326749)
(-0.00275721 0.0139257 0.00758728)
(-0.00866563 0.00308895 0.00308885)
(-0.00730754 0.0039947 0.00730754)
(-0.00308885 0.00308895 0.00866563)
(-0.00964008 0.00907911 0.00287981)
(-0.0123485 0.019243 0.00334657)
(-0.00808554 0.0136046 0.00808554)
(-0.00361055 0.0510008 0.00361055)
(-0.00334657 0.019243 0.0123485)
(-0.00287981 0.00907911 0.00964008)
(-0.00674755 0.00318184 0.00550362)
(-0.0117429 0.00345566 0.00776284)
(-0.00776284 0.00345566 0.0117429)
(-0.00550362 0.00318184 0.00674755)
(-0.00695321 0.00852038 0.00442475)
(-0.0142713 0.011732 0.00282137)
(-0.0115401 0.00965412 0.00770808)
(-0.0162948 0.0490423 0.0036263)
(-0.0120975 0.0188742 0.0120975)
(-0.00770808 0.00965412 0.0115401)
(-0.00588215 0.0468405 0.00588215)
(-0.0036263 0.0490423 0.0162948)
(-0.00282137 0.011732 0.0142713)
(-0.00442475 0.00852038 0.00695321)
(-0.00220481 0.00297046 0.00569704)
(-0.0096457 0.00446498 0.0119723)
(-0.0135886 0.0034349 0.0135886)
(-0.0119723 0.00446498 0.0096457)
(-0.00569704 0.00297046 0.00220481)
(-0.00239628 0.00761351 0.00454024)
(-0.00818843 0.01077 0.00318602)
(-0.00888457 0.0111719 0.0105052)
(-0.0179979 0.0156281 0.00277649)
(-0.0144395 0.0121543 0.00834281)
(-0.0123146 0.00894296 0.0123146)
(-0.0457854 0.0453308 0.00571044)
(-0.0157574 0.0473144 0.0157574)
(-0.00834281 0.0121543 0.0144395)
(-0.0105052 0.0111719 0.00888457)
(-0.00571044 0.0453308 0.0457854)
(-0.00277649 0.0156281 0.0179979)
(-0.00318602 0.01077 0.00818843)
(-0.00454024 0.00761351 0.00239628)
(-0.0025839 0.0043344 0.0120369)
(-0.0114517 0.00526537 0.0366256)
(-0.0366256 0.00526537 0.0114517)
(-0.0120369 0.0043344 0.0025839)
(-0.00297864 0.00918239 0.00310491)
(-0.00267291 0.0105283 0.0103934)
(-0.0092685 0.0129825 0.00283667)
(-0.00874916 0.0126261 0.00865242)
(-0.010055 0.0123642 0.0282703)
(-0.0491178 0.010175 0.00333868)
(-0.0176825 0.0154486 0.00915764)
(-0.0111747 0.0106092 0.0111747)
(-0.0282703 0.0123642 0.010055)
(-0.0440476 0.0439433 0.0440476)
(-0.00915764 0.0154486 0.0176825)
(-0.00865242 0.0126261 0.00874916)
(-0.0103934 0.0105283 0.00267291)
(-0.00333868 0.010175 0.0491178)
(-0.00283667 0.0129825 0.0092685)
(-0.00310491 0.00918239 0.00297864)
(-0.0026584 0.005197 0.0365084)
(-0.0341159 0.105278 0.0341159)
(-0.0365084 0.005197 0.0026584)
(-0.00375342 0.00875413 0.00254832)
(-0.0030433 0.011404 0.00805623)
(-0.00261392 0.0121171 0.0279781)
(-0.0145335 0.00756753 0.00314842)
(-0.00935892 0.0132446 0.00840424)
(-0.00831054 0.0131505 0.0145319)
(-0.0249797 0.0339914 0.0249797)
(-0.047353 0.00976166 0.0140078)
(-0.0112993 0.0102154 0.0112993)
(-0.0145319 0.0131505 0.00831054)
(-0.0279781 0.0121171 0.00261392)
(-0.0140078 0.00976166 0.047353)
(-0.00840424 0.0132446 0.00935892)
(-0.00805623 0.011404 0.0030433)
(-0.00314842 0.00756753 0.0145335)
(-0.00254832 0.00875413 0.00375342)
(-0.00351651 0.0996311 0.0341508)
(-0.0341508 0.0996311 0.00351651)
(-0.00685041 0.00421729 0.00251557)
(-0.00362095 0.00949347 0.00714893)
(-0.00265873 0.0126674 0.0141156)
(-0.00300384 0.0337923 0.0248684)
(-0.014176 0.00733964 0.011322)
(-0.0077014 0.010378 0.0116403)
(-0.0119767 0.0291912 0.0119767)
(-0.0248684 0.0337923 0.00300384)
(-0.0158311 0.00512967 0.0158311)
(-0.0116403 0.010378 0.0077014)
(-0.0141156 0.0126674 0.00265873)
(-0.011322 0.00733964 0.014176)
(-0.00714893 0.00949347 0.00362095)
(-0.00251557 0.00421729 0.00685041)
(-0.00340402 0.0941345 0.00340402)
(-0.0064323 0.00428476 0.00757945)
(-0.00276831 0.00926769 0.0105137)
(-0.00296414 0.0288081 0.0119187)
(-0.00291369 0.0336033 0.00291369)
(-0.00879228 0.0045607 0.0135431)
(-0.00880836 0.013912 0.00880836)
(-0.0119187 0.0288081 0.00296414)
(-0.0135431 0.0045607 0.00879228)
(-0.0105137 0.00926769 0.00276831)
(-0.00757945 0.00428476 0.0064323)
(-0.00344695 0.00370565 0.00975314)
(-0.00273831 0.0136097 0.00839669)
(-0.00280622 0.0285717 0.00280622)
(-0.00824717 0.00512164 0.00824717)
(-0.00839669 0.0136097 0.00273831)
(-0.00975314 0.00370565 0.00344695)
(-0.0028637 0.00481645 0.00711842)
(-0.00248921 0.0135845 0.00248921)
(-0.00711842 0.00481645 0.0028637)
(-0.00242747 0.00470627 0.00242747)
)
;

boundaryField
{
    wall
    {
        type            noSlip;
    }
    inlet
    {
        type            fixedValue;
        value           uniform (0 0.1 0);
    }
    outlet
    {
        type            pressureInletOutletVelocity;
        value           nonuniform List<vector> 4((-0.00351651 0.0996311 0.0341508) (-0.0341159 0.105278 0.0341159) (-0.00340402 0.0941345 0.00340402) (-0.0341508 0.0996311 0.00351651));
    }
}


// ************************************************************************* //
